Variables = x, y, u
ZONE I= 80 J= 80 F=point
0.139243 0.0117781 -7.24903e-06
0.149176 0.0295483 -9.93158e-06
0.159108 0.0473185 -1.17537e-05
0.169041 0.0650887 -1.36013e-05
0.179162 0.0823779 -1.47589e-05
0.189471 0.0991862 -1.57267e-05
0.199781 0.115995 -1.67835e-05
0.21009 0.132803 -1.8213e-05
0.220483 0.149234 -1.93231e-05
0.230961 0.165288 -2.05282e-05
0.241438 0.181341 -2.20661e-05
0.251916 0.197395 -2.44139e-05
0.262465 0.212992 -2.64743e-05
0.273087 0.228132 -2.8839e-05
0.283708 0.243272 -3.19309e-05
0.29433 0.258412 -3.65452e-05
0.305014 0.273044 -4.08202e-05
0.315761 0.287168 -4.55843e-05
0.326508 0.301292 -5.16092e-05
0.337255 0.315416 -6.01438e-05
0.348055 0.329009 -6.78829e-05
0.358908 0.34207 -7.59348e-05
0.369761 0.355131 -8.56444e-05
0.380615 0.368192 -9.86944e-05
0.391512 0.380717 -0.000109522
0.402454 0.392706 -0.000119616
0.413395 0.404695 -0.000131202
0.424337 0.416684 -0.000146169
0.435313 0.428148 -0.000156512
0.446323 0.439085 -0.000164352
0.457334 0.450022 -0.00017308
0.468344 0.46096 -0.000184486
0.479379 0.471391 -0.000189142
0.49044 0.481316 -0.000189991
0.5015 0.491242 -0.000191449
0.51256 0.501167 -0.000194932
0.523637 0.510614 -0.00019132
0.53473 0.519582 -0.00018407
0.545824 0.528551 -0.000177877
0.556917 0.537519 -0.000173583
0.568017 0.546041 -0.000163762
0.579125 0.554116 -0.000151649
0.590232 0.562191 -0.000141289
0.60134 0.570266 -0.000132943
0.612446 0.577929 -0.000121335
0.623551 0.585181 -0.000108893
0.634656 0.592433 -9.85035e-05
0.645761 0.599684 -9.00345e-05
0.656857 0.60656 -8.01126e-05
0.667942 0.613061 -7.02327e-05
0.679027 0.619561 -6.2173e-05
0.690113 0.626061 -5.56507e-05
0.701181 0.632222 -4.86713e-05
0.712233 0.638042 -4.20214e-05
0.723285 0.643862 -3.66914e-05
0.734337 0.649683 -3.24134e-05
0.745364 0.655198 -2.80804e-05
0.756367 0.660407 -2.40579e-05
0.76737 0.665616 -2.08675e-05
0.778373 0.670826 -1.83185e-05
0.789346 0.675762 -1.58217e-05
0.800288 0.680425 -1.35344e-05
0.81123 0.685088 -1.17287e-05
0.822172 0.689751 -1.02877e-05
0.833079 0.694171 -8.90579e-06
0.843949 0.698347 -7.64758e-06
0.85482 0.702524 -6.65692e-06
0.865691 0.706701 -5.86845e-06
0.876521 0.710661 -5.12449e-06
0.887312 0.714405 -4.45009e-06
0.898102 0.718149 -3.92473e-06
0.908893 0.721893 -3.5139e-06
0.919638 0.725445 -3.13445e-06
0.930339 0.728804 -2.79402e-06
0.941039 0.732164 -2.54078e-06
0.95174 0.735524 -2.35744e-06
0.962392 0.738712 -2.19574e-06
0.972997 0.74173 -2.05319e-06
0.983602 0.744748 -1.96015e-06
0.994207 0.747766 -1.88252e-06
0.137075 0.0175011 -2.00873e-05
0.147059 0.0351452 -2.59904e-05
0.157042 0.0527893 -3.02146e-05
0.167026 0.0704333 -3.4451e-05
0.177193 0.087606 -3.79526e-05
0.187542 0.104307 -4.0507e-05
0.197891 0.121008 -4.32794e-05
0.208241 0.13771 -4.68127e-05
0.21867 0.154043 -5.03398e-05
0.229179 0.170009 -5.36732e-05
0.239689 0.185974 -5.78859e-05
0.250198 0.20194 -6.39066e-05
0.260776 0.217457 -7.04005e-05
0.271423 0.232525 -7.70242e-05
0.28207 0.247593 -8.55792e-05
0.292717 0.262662 -9.76544e-05
0.303424 0.277228 -0.000110784
0.314191 0.291293 -0.000124149
0.324959 0.305358 -0.000140862
0.335726 0.319423 -0.000163413
0.346545 0.332962 -0.000187021
0.357414 0.345974 -0.000209703
0.368284 0.358986 -0.000236704
0.379154 0.371998 -0.000271289
0.390067 0.384479 -0.000304801
0.401022 0.396428 -0.000333553
0.411977 0.408377 -0.000365917
0.422932 0.420327 -0.000405449
0.43392 0.431753 -0.000439042
0.444942 0.442658 -0.000462065
0.455964 0.453562 -0.000486651
0.466985 0.464466 -0.000516164
0.478031 0.474867 -0.00053463
0.489101 0.484766 -0.000538506
0.500171 0.494664 -0.000542795
0.511241 0.504562 -0.000550292
0.522326 0.513984 -0.000545094
0.533428 0.52293 -0.000526168
0.544529 0.531875 -0.000508747
0.555631 0.540821 -0.000494637
0.566739 0.549322 -0.000470449
0.577854 0.557378 -0.000437288
0.588969 0.565435 -0.000407733
0.600084 0.573491 -0.00038244
0.611198 0.581137 -0.000351488
0.62231 0.588373 -0.000316726
0.633422 0.595609 -0.000286776
0.644534 0.602845 -0.000261409
0.655636 0.609706 -0.000233953
0.666728 0.616193 -0.000205959
0.67782 0.62268 -0.000182501
0.688912 0.629167 -0.000162961
0.699987 0.635315 -0.000143184
0.711046 0.641124 -0.00012413
0.722105 0.646933 -0.000108481
0.733163 0.652741 -9.5618e-05
0.744197 0.658245 -8.31232e-05
0.755207 0.663444 -7.14908e-05
0.766217 0.668644 -6.20528e-05
0.777227 0.673843 -5.43555e-05
0.788206 0.678769 -4.70592e-05
0.799156 0.683423 -4.03972e-05
0.810105 0.688077 -3.50234e-05
0.821055 0.692731 -3.06554e-05
0.831968 0.697142 -2.65766e-05
0.842847 0.701311 -2.2893e-05
0.853725 0.705479 -1.99323e-05
0.864603 0.709647 -1.75352e-05
0.875442 0.7136 -1.53231e-05
0.88624 0.717336 -1.3343e-05
0.897039 0.721073 -1.17686e-05
0.907837 0.724809 -1.05155e-05
0.918591 0.728354 -9.38054e-06
0.9293 0.731706 -8.38125e-06
0.940008 0.735059 -7.62072e-06
0.950717 0.738411 -7.05663e-06
0.961379 0.741593 -6.56895e-06
0.971992 0.744605 -6.15487e-06
0.982606 0.747616 -5.87713e-06
0.99322 0.750627 -5.66561e-06
0.134907 0.0232241 -3.50167e-05
0.144942 0.0407421 -4.39834e-05
0.154977 0.05826 -5.05656e-05
0.165011 0.075778 -5.71759e-05
0.175223 0.092834 -6.27132e-05
0.185613 0.109428 -6.69027e-05
0.196002 0.126022 -7.14985e-05
0.206391 0.142616 -7.72165e-05
0.216857 0.158852 -8.30251e-05
0.227398 0.17473 -8.86659e-05
0.237939 0.190608 -9.58015e-05
0.24848 0.206486 -0.000105686
0.259087 0.221923 -0.000116504
0.269759 0.236919 -0.000127735
0.280432 0.251915 -0.000142191
0.291104 0.266911 -0.00016202
0.301834 0.281412 -0.00018383
0.312622 0.295418 -0.000206302
0.32341 0.309424 -0.000234281
0.334197 0.32343 -0.00027105
0.345034 0.336914 -0.000309953
0.355921 0.349878 -0.000347754
0.366807 0.362842 -0.000392492
0.377694 0.375805 -0.000448262
0.388621 0.388242 -0.000502997
0.39959 0.400151 -0.000550631
0.410558 0.41206 -0.000603766
0.421527 0.423969 -0.000666589
0.432528 0.435359 -0.000721019
0.443561 0.44623 -0.00075928
0.454593 0.457102 -0.00079934
0.465626 0.467973 -0.000845036
0.476682 0.478344 -0.000874718
0.487762 0.488215 -0.000882009
0.498841 0.498086 -0.00088889
0.509921 0.507957 -0.000898618
0.521015 0.517354 -0.000890072
0.532125 0.526277 -0.000860553
0.543235 0.5352 -0.000832183
0.554345 0.544123 -0.000807194
0.565461 0.552603 -0.000768075
0.576583 0.560641 -0.000715416
0.587706 0.568679 -0.000667347
0.598829 0.576716 -0.000624739
0.609949 0.584345 -0.000574681
0.621068 0.591565 -0.0005191
0.632187 0.598785 -0.000470311
0.643306 0.606005 -0.00042803
0.654415 0.612852 -0.000383513
0.665514 0.619326 -0.000338507
0.676612 0.625799 -0.000300172
0.687711 0.632273 -0.000267674
0.698793 0.638408 -0.000235483
0.709859 0.644205 -0.000204685
0.720924 0.650003 -0.000179009
0.731989 0.6558 -0.000157594
0.74303 0.661293 -0.000137164
0.754047 0.666482 -0.000118265
0.765064 0.671671 -0.000102715
0.77608 0.67686 -8.9869e-05
0.787067 0.681777 -7.78855e-05
0.798024 0.686422 -6.70119e-05
0.80898 0.691066 -5.81236e-05
0.819937 0.695711 -5.08157e-05
0.830858 0.700114 -4.40901e-05
0.841744 0.704274 -3.80554e-05
0.85263 0.708434 -3.31431e-05
0.863516 0.712594 -2.91233e-05
0.874362 0.716538 -2.54643e-05
0.885168 0.720267 -2.22122e-05
0.895975 0.723996 -1.95938e-05
0.906781 0.727725 -1.7487e-05
0.917543 0.731262 -1.56045e-05
0.92826 0.734608 -1.39622e-05
0.938978 0.737954 -1.26945e-05
0.949695 0.741299 -1.17404e-05
0.960365 0.744474 -1.09293e-05
0.970988 0.747479 -1.02531e-05
0.98161 0.750484 -9.7936e-06
0.992233 0.753488 -9.46279e-06
0.132739 0.0289471 -5.14383e-05
0.142825 0.046339 -6.31079e-05
0.152911 0.0637308 -7.18575e-05
0.162996 0.0811226 -8.06433e-05
0.173254 0.098062 -8.81089e-05
0.183683 0.114549 -9.39536e-05
0.194113 0.131036 -0.000100406
0.204542 0.147523 -0.000108281
0.215043 0.163661 -0.000116397
0.225616 0.179451 -0.000124484
0.236189 0.195241 -0.000134695
0.246763 0.211031 -0.00014849
0.257398 0.226388 -0.000163736
0.268096 0.241312 -0.000179845
0.278794 0.256236 -0.000200478
0.289492 0.27116 -0.000228136
0.300245 0.285596 -0.000258732
0.311053 0.299543 -0.000290679
0.32186 0.313489 -0.000330239
0.332668 0.327436 -0.000381125
0.343524 0.340867 -0.000435183
0.354427 0.353782 -0.000488389
0.36533 0.366697 -0.00055096
0.376233 0.379612 -0.000627258
0.387176 0.392004 -0.000702453
0.398158 0.403873 -0.000768972
0.40914 0.415742 -0.000842514
0.420122 0.427611 -0.0009272
0.431135 0.438965 -0.00100102
0.442179 0.449803 -0.00105435
0.453223 0.460641 -0.00110922
0.464267 0.471479 -0.00116926
0.475334 0.48182 -0.00120859
0.486423 0.491664 -0.00121943
0.497512 0.501508 -0.00122847
0.508601 0.511352 -0.00123891
0.519704 0.520724 -0.00122606
0.530822 0.529624 -0.00118671
0.54194 0.538525 -0.00114753
0.553058 0.547425 -0.00111091
0.564183 0.555885 -0.00105676
0.575313 0.563904 -0.000985824
0.586443 0.571922 -0.000919828
0.597573 0.579941 -0.000859791
0.608701 0.587553 -0.000791065
0.619827 0.594757 -0.000715894
0.630952 0.601962 -0.000648936
0.642078 0.609166 -0.000589905
0.653194 0.615998 -0.000528862
0.664299 0.622458 -0.000467766
0.675405 0.628919 -0.00041506
0.68651 0.635379 -0.000369779
0.697599 0.641502 -0.00032557
0.708671 0.647287 -0.000283591
0.719743 0.653073 -0.000248184
0.730815 0.658858 -0.000218318
0.741863 0.664341 -0.00019018
0.752887 0.669519 -0.000164309
0.763911 0.674698 -0.000142789
0.774934 0.679877 -0.000124836
0.785928 0.684784 -0.000108276
0.796892 0.68942 -9.33317e-05
0.807856 0.694056 -8.09896e-05
0.818819 0.698691 -7.07519e-05
0.829748 0.703085 -6.14287e-05
0.840642 0.707237 -5.31068e-05
0.851535 0.711389 -4.62662e-05
0.862429 0.715541 -4.06222e-05
0.873282 0.719477 -3.55366e-05
0.884097 0.723198 -3.10412e-05
0.894911 0.72692 -2.73866e-05
0.905725 0.730641 -2.44214e-05
0.916495 0.734171 -2.17991e-05
0.927221 0.73751 -1.95266e-05
0.937947 0.740848 -1.77538e-05
0.948673 0.744187 -1.64045e-05
0.959351 0.747355 -1.52723e-05
0.969983 0.750353 -1.43417e-05
0.980615 0.753352 -1.37046e-05
0.991246 0.75635 -1.32654e-05
0.130572 0.0346701 -6.92944e-05
0.140708 0.0519358 -8.33898e-05
0.150845 0.0692016 -9.41556e-05
0.160981 0.0864673 -0.000104968
0.171285 0.10329 -0.000114253
0.181754 0.11967 -0.000121769
0.192223 0.13605 -0.000130102
0.202693 0.152429 -0.000140129
0.21323 0.16847 -0.000150574
0.223835 0.184172 -0.000161238
0.23444 0.199874 -0.000174657
0.245045 0.215576 -0.000192434
0.255709 0.230853 -0.000212208
0.266432 0.245705 -0.000233446
0.277156 0.260558 -0.000260494
0.287879 0.27541 -0.000296078
0.298655 0.28978 -0.000335568
0.309483 0.303667 -0.00037731
0.320311 0.317555 -0.000428689
0.33114 0.331443 -0.000493617
0.342014 0.34482 -0.000562704
0.352933 0.357686 -0.000631513
0.363853 0.370552 -0.000711893
0.374773 0.383419 -0.000808115
0.38573 0.395766 -0.000903078
0.396726 0.407595 -0.000988347
0.407721 0.419424 -0.00108179
0.418717 0.431253 -0.00118703
0.429743 0.44257 -0.00127897
0.440798 0.453376 -0.00134701
0.451853 0.464181 -0.00141591
0.462908 0.474986 -0.00148866
0.473985 0.485297 -0.00153631
0.485084 0.495113 -0.0015506
0.496182 0.50493 -0.00156125
0.507281 0.514746 -0.00157114
0.518393 0.524093 -0.00155327
0.52952 0.532971 -0.00150458
0.540646 0.541849 -0.00145465
0.551772 0.550727 -0.00140587
0.562904 0.559166 -0.00133674
0.574042 0.567166 -0.00124849
0.58518 0.575166 -0.00116509
0.596317 0.583166 -0.00108769
0.607452 0.590761 -0.00100079
0.618585 0.597949 -0.000907058
0.629718 0.605138 -0.000822565
0.64085 0.612327 -0.000747068
0.651973 0.619144 -0.000670048
0.663085 0.625591 -0.000593658
0.674197 0.632038 -0.000527075
0.68531 0.638484 -0.000469265
0.696405 0.644595 -0.000413434
0.707484 0.650369 -0.000360768
0.718563 0.656143 -0.000315925
0.729642 0.661917 -0.000277762
0.740696 0.667388 -0.00024214
0.751727 0.672557 -0.000209561
0.762757 0.677725 -0.00018222
0.773788 0.682894 -0.000159231
0.784789 0.687792 -0.000138204
0.79576 0.692418 -0.000119315
0.806731 0.697045 -0.000103586
0.817702 0.701672 -9.04452e-05
0.828638 0.706057 -7.85736e-05
0.839539 0.7102 -6.80217e-05
0.85044 0.714344 -5.928e-05
0.861341 0.718487 -5.20198e-05
0.872203 0.722416 -4.55283e-05
0.883025 0.72613 -3.98149e-05
0.893847 0.729843 -3.51344e-05
0.904669 0.733557 -3.13112e-05
0.915447 0.73708 -2.79569e-05
0.926182 0.740411 -2.50654e-05
0.936916 0.743743 -2.27904e-05
0.94765 0.747075 -2.10437e-05
0.958338 0.750236 -1.95933e-05
0.968978 0.753228 -1.84148e-05
0.979619 0.75622 -1.76049e-05
0.99026 0.759211 -1.70657e-05
0.128404 0.0403931 -8.84764e-05
0.138591 0.0575327 -0.000104758
0.148779 0.0746723 -0.000117402
0.158967 0.0918119 -0.000130107
0.169315 0.108518 -0.000141131
0.179825 0.124791 -0.000150328
0.190334 0.141063 -0.000160559
0.200844 0.157336 -0.000172737
0.211417 0.173279 -0.00018555
0.222054 0.188893 -0.00019891
0.23269 0.204508 -0.000215655
0.243327 0.220122 -0.000237489
0.25402 0.235319 -0.000261908
0.264769 0.250099 -0.000288502
0.275517 0.264879 -0.000322168
0.286266 0.279659 -0.000365776
0.297065 0.293964 -0.000414285
0.307914 0.307792 -0.000466094
0.318762 0.321621 -0.000529464
0.329611 0.335449 -0.000608358
0.340503 0.348773 -0.000692382
0.35144 0.36159 -0.000776905
0.362376 0.374408 -0.00087497
0.373312 0.387226 -0.000990537
0.384285 0.399529 -0.00110466
0.395294 0.411318 -0.00120843
0.406303 0.423107 -0.00132116
0.417312 0.434896 -0.00144575
0.42835 0.446176 -0.00155468
0.439417 0.456948 -0.00163695
0.450483 0.467721 -0.00171899
0.46155 0.478493 -0.00180301
0.472637 0.488773 -0.00185785
0.483745 0.498563 -0.00187532
0.494853 0.508352 -0.00188699
0.505961 0.518141 -0.00189528
0.517082 0.527463 -0.00187182
0.528217 0.536319 -0.00181411
0.539352 0.545174 -0.00175344
0.550486 0.554029 -0.00169216
0.561626 0.562448 -0.00160819
0.572771 0.570429 -0.0015034
0.583916 0.57841 -0.00140308
0.595062 0.586391 -0.0013085
0.606204 0.593969 -0.00120396
0.617343 0.601141 -0.00109256
0.628483 0.608314 -0.000991139
0.639623 0.615487 -0.000899546
0.650752 0.62229 -0.000807098
0.661871 0.628724 -0.000716121
0.67299 0.635157 -0.000636144
0.684109 0.64159 -0.000566115
0.695211 0.647688 -0.000499055
0.706297 0.653451 -0.000436148
0.717382 0.659213 -0.000382168
0.728468 0.664975 -0.000335892
0.739529 0.670436 -0.000293013
0.750567 0.675594 -0.000253964
0.761604 0.680753 -0.000220957
0.772642 0.685911 -0.000193023
0.783649 0.690799 -0.000167642
0.794628 0.695417 -0.000144925
0.805606 0.700034 -0.000125879
0.816584 0.704652 -0.000109875
0.827528 0.709028 -9.55057e-05
0.838436 0.713163 -8.27771e-05
0.849345 0.717299 -7.21648e-05
0.860254 0.721434 -6.3303e-05
0.871123 0.725355 -5.5427e-05
0.881953 0.729061 -4.85192e-05
0.892783 0.732767 -4.2825e-05
0.903613 0.736473 -3.81482e-05
0.9144 0.739988 -3.40702e-05
0.925142 0.743313 -3.05697e-05
0.935885 0.746638 -2.77969e-05
0.946628 0.749962 -2.56527e-05
0.957324 0.753117 -2.38871e-05
0.967974 0.756102 -2.24666e-05
0.978623 0.759088 -2.14888e-05
0.989273 0.762073 -2.08565e-05
0.126236 0.0461161 -0.000108901
0.136475 0.0631296 -0.00012717
0.146713 0.0801431 -0.000141569
0.156952 0.0971566 -0.000156048
0.167346 0.113746 -0.000168744
0.177895 0.129912 -0.000179632
0.188445 0.146077 -0.000191772
0.198994 0.162243 -0.000206109
0.209604 0.178089 -0.000221336
0.220272 0.193615 -0.000237501
0.230941 0.209141 -0.000257679
0.241609 0.224667 -0.000283651
0.252331 0.239784 -0.000312837
0.263105 0.254492 -0.000344995
0.273879 0.2692 -0.000385454
0.284653 0.283909 -0.000437187
0.295475 0.298148 -0.000494841
0.306344 0.311917 -0.000556944
0.317213 0.325687 -0.000632425
0.328082 0.339456 -0.000725209
0.338993 0.352725 -0.000824079
0.349946 0.365494 -0.000924357
0.360899 0.378263 -0.00103991
0.371851 0.391032 -0.00117427
0.382839 0.403291 -0.00130697
0.393862 0.41504 -0.0014289
0.404885 0.426789 -0.00156024
0.415907 0.438538 -0.00170305
0.426958 0.449782 -0.00182795
0.438035 0.460521 -0.00192386
0.449113 0.47126 -0.00201813
0.460191 0.481999 -0.0021121
0.471288 0.49225 -0.00217314
0.482406 0.502012 -0.00219343
0.493524 0.511774 -0.00220549
0.504641 0.521536 -0.00221128
0.515771 0.530833 -0.00218179
0.526914 0.539666 -0.00211525
0.538057 0.548499 -0.00204382
0.5492 0.557332 -0.00196983
0.560348 0.565729 -0.00187121
0.571501 0.573692 -0.00175055
0.582653 0.581654 -0.00163377
0.593806 0.589617 -0.00152231
0.604955 0.597176 -0.00140066
0.616102 0.604334 -0.00127237
0.627248 0.611491 -0.00115462
0.638395 0.618648 -0.00104735
0.649531 0.625436 -0.000940026
0.660657 0.631856 -0.000835105
0.671783 0.638276 -0.000742211
0.682908 0.644696 -0.000660306
0.694017 0.650781 -0.000582407
0.705109 0.656532 -0.000509673
0.716202 0.662283 -0.000446854
0.727294 0.668034 -0.000392676
0.738362 0.673483 -0.000342763
0.749407 0.678632 -0.000297472
0.760451 0.68378 -0.000258956
0.771495 0.688928 -0.000226185
0.78251 0.693806 -0.000196562
0.793496 0.698415 -0.000170127
0.804481 0.703023 -0.000147841
0.815467 0.707632 -0.000129021
0.826418 0.712 -0.000112205
0.837334 0.716127 -9.73516e-05
0.84825 0.720254 -8.49018e-05
0.859166 0.724381 -7.44584e-05
0.870044 0.728293 -6.52205e-05
0.880881 0.731992 -5.71412e-05
0.891719 0.735691 -5.04472e-05
0.902557 0.739389 -4.49239e-05
0.913352 0.742897 -4.01311e-05
0.924103 0.746215 -3.60314e-05
0.934854 0.749532 -3.27659e-05
0.945606 0.75285 -3.0226e-05
0.956311 0.755998 -2.81487e-05
0.966969 0.758977 -2.64914e-05
0.977628 0.761955 -2.53505e-05
0.988286 0.764934 -2.46311e-05
0.124068 0.0518391 -0.000130427
0.134358 0.0687265 -0.000150512
0.144647 0.0856138 -0.000166553
0.154937 0.102501 -0.000182702
0.165376 0.118974 -0.000197018
0.175966 0.135033 -0.000209598
0.186556 0.151091 -0.000223649
0.197145 0.167149 -0.000240153
0.20779 0.182898 -0.000257842
0.218491 0.198336 -0.000276906
0.229191 0.213774 -0.0003006
0.239892 0.229212 -0.000330787
0.250642 0.244249 -0.00036486
0.261441 0.258886 -0.000402754
0.272241 0.273522 -0.000450141
0.283041 0.288158 -0.000510083
0.293885 0.302331 -0.000577002
0.304775 0.316042 -0.000649564
0.315664 0.329752 -0.000737208
0.326554 0.343463 -0.000843786
0.337483 0.356678 -0.000957415
0.348452 0.369398 -0.0010734
0.359421 0.382119 -0.00120616
0.370391 0.394839 -0.00135875
0.381394 0.407054 -0.00150951
0.39243 0.418763 -0.00164916
0.403466 0.430471 -0.00179838
0.414502 0.44218 -0.00195835
0.425565 0.453388 -0.00209829
0.436654 0.464094 -0.00220718
0.447743 0.4748 -0.00231275
0.458832 0.485506 -0.0024155
0.46994 0.495726 -0.00248189
0.481067 0.505461 -0.00250455
0.492194 0.515196 -0.00251639
0.503321 0.52493 -0.00251895
0.51446 0.534203 -0.0024831
0.525612 0.543013 -0.00240784
0.536763 0.551823 -0.00232564
0.547914 0.560634 -0.00223886
0.55907 0.569011 -0.00212584
0.57023 0.576954 -0.0019899
0.58139 0.584898 -0.0018571
0.59255 0.592842 -0.0017291
0.603707 0.600384 -0.00159091
0.61486 0.607526 -0.00144647
0.626014 0.614667 -0.00131295
0.637167 0.621808 -0.00119048
0.64831 0.628582 -0.00106883
0.659443 0.634989 -0.00095056
0.670575 0.641395 -0.000845219
0.681708 0.647802 -0.000751808
0.692823 0.653875 -0.00066346
0.703922 0.659614 -0.00058129
0.715021 0.665353 -0.000509929
0.72612 0.671092 -0.000448077
0.737195 0.676531 -0.000391356
0.748246 0.681669 -0.00034004
0.759298 0.686807 -0.000296175
0.770349 0.691945 -0.000258684
0.781371 0.696814 -0.000224934
0.792364 0.701413 -0.000194891
0.803356 0.706013 -0.000169441
0.814349 0.710612 -0.000147862
0.825307 0.714971 -0.000128654
0.836231 0.71909 -0.000111725
0.847155 0.723209 -9.74734e-05
0.858079 0.727327 -8.54724e-05
0.868964 0.731232 -7.48964e-05
0.87981 0.734923 -6.56685e-05
0.890656 0.738614 -5.79898e-05
0.901501 0.742305 -5.16296e-05
0.912304 0.745806 -4.61319e-05
0.923064 0.749117 -4.14426e-05
0.933824 0.752427 -3.76902e-05
0.944583 0.755738 -3.47577e-05
0.955297 0.758879 -3.23725e-05
0.965964 0.761851 -3.04836e-05
0.976632 0.764823 -2.91844e-05
0.9873 0.767795 -2.83832e-05
0.121941 0.0577465 -0.000153434
0.132279 0.0745039 -0.000175296
0.142617 0.0912614 -0.000192882
0.152955 0.108019 -0.00021064
0.163438 0.124371 -0.000226571
0.174066 0.140319 -0.000240879
0.184693 0.156267 -0.0002569
0.195321 0.172215 -0.000275648
0.206 0.187862 -0.000295923
0.216731 0.203209 -0.000318053
0.227462 0.218556 -0.00034545
0.238193 0.233903 -0.000380049
0.248971 0.248857 -0.00041927
0.259795 0.263419 -0.00046321
0.270619 0.27798 -0.000517844
0.281443 0.292541 -0.000586287
0.29231 0.306646 -0.000662824
0.303219 0.320295 -0.000746233
0.314128 0.333943 -0.000846374
0.325037 0.347592 -0.000966957
0.335984 0.36075 -0.00109558
0.34697 0.37342 -0.00122751
0.357955 0.386089 -0.00137754
0.368941 0.398758 -0.00154818
0.379958 0.410926 -0.0017168
0.391008 0.422592 -0.00187399
0.402057 0.434258 -0.00204063
0.413107 0.445925 -0.00221698
0.424181 0.457093 -0.00237128
0.435281 0.467764 -0.00249255
0.446381 0.478435 -0.00260859
0.457481 0.489106 -0.00271902
0.468599 0.499294 -0.00278991
0.479736 0.509 -0.00281435
0.490873 0.518705 -0.00282523
0.502009 0.528411 -0.00282368
0.513157 0.537656 -0.00278095
0.524316 0.546442 -0.00269674
0.535476 0.555228 -0.00260347
0.546635 0.564014 -0.00250353
0.557799 0.572369 -0.0023761
0.568966 0.580292 -0.00222506
0.580134 0.588215 -0.00207637
0.591301 0.596138 -0.00193191
0.602465 0.603662 -0.00177746
0.613625 0.610786 -0.00161724
0.624785 0.61791 -0.00146827
0.635946 0.625035 -0.00133083
0.647095 0.631793 -0.00119518
0.658235 0.638184 -0.00106393
0.669374 0.644576 -0.000946427
0.680513 0.650968 -0.000841722
0.691635 0.657027 -0.000743177
0.702741 0.662754 -0.00065182
0.713846 0.66848 -0.000572106
0.724952 0.674206 -0.000502713
0.736033 0.679633 -0.00043933
0.747091 0.68476 -0.000382122
0.75815 0.689887 -0.000333007
0.769208 0.695014 -0.000290862
0.780237 0.699872 -0.000253055
0.791236 0.704461 -0.000219467
0.802236 0.709051 -0.000190898
0.813236 0.71364 -0.000166585
0.824201 0.71799 -0.000145015
0.835133 0.722099 -0.000126039
0.846064 0.726209 -0.000110002
0.856995 0.730319 -9.64525e-05
0.867888 0.734215 -8.45493e-05
0.878741 0.737898 -7.4183e-05
0.889595 0.741581 -6.55255e-05
0.900449 0.745263 -5.83301e-05
0.911259 0.748756 -5.21309e-05
0.922027 0.752059 -4.68557e-05
0.932796 0.755362 -4.2618e-05
0.943564 0.758665 -3.92927e-05
0.954286 0.761799 -3.6601e-05
0.964962 0.764764 -3.44832e-05
0.975638 0.767729 -3.30285e-05
0.986315 0.770695 -3.21507e-05
0.119855 0.0638383 -0.000178063
0.130239 0.080462 -0.000201588
0.140623 0.0970856 -0.000220635
0.151006 0.113709 -0.000239944
0.16153 0.129938 -0.000257491
0.172194 0.145772 -0.000273564
0.182858 0.161606 -0.000291619
0.193522 0.17744 -0.000312692
0.204234 0.192983 -0.000335689
0.214994 0.208235 -0.000361058
0.225754 0.223488 -0.000392356
0.236514 0.23874 -0.00043158
0.247318 0.253608 -0.000476222
0.258165 0.268091 -0.000526524
0.269013 0.282575 -0.000588728
0.27986 0.297058 -0.000665984
0.290748 0.311091 -0.000752498
0.301677 0.324675 -0.000847127
0.312605 0.338259 -0.000960082
0.323533 0.351843 -0.00109489
0.334498 0.364943 -0.00123873
0.345499 0.377558 -0.00138677
0.3565 0.390174 -0.00155409
0.367501 0.402789 -0.00174256
0.378532 0.414907 -0.00192882
0.389595 0.426529 -0.00210324
0.400657 0.438151 -0.00228677
0.411719 0.449772 -0.0024787
0.422806 0.4609 -0.00264662
0.433917 0.471533 -0.00277954
0.445028 0.482167 -0.00290514
0.456139 0.4928 -0.00302216
0.467267 0.502954 -0.00309669
0.478413 0.512628 -0.00312219
0.489559 0.522302 -0.00313134
0.500705 0.531976 -0.00312485
0.511861 0.541193 -0.00307473
0.523029 0.549953 -0.00298126
0.534196 0.558713 -0.00287663
0.545364 0.567472 -0.00276326
0.556535 0.575803 -0.0026214
0.567709 0.583704 -0.00245541
0.578884 0.591605 -0.002291
0.590059 0.599507 -0.00213022
0.60123 0.60701 -0.00195981
0.612397 0.614115 -0.0017842
0.623564 0.621221 -0.00162013
0.634731 0.628326 -0.00146802
0.645887 0.635067 -0.00131873
0.657033 0.641443 -0.00117487
0.668178 0.647819 -0.00104552
0.679324 0.654194 -0.000929787
0.690453 0.660238 -0.000821321
0.701565 0.665951 -0.00072104
0.712677 0.671664 -0.000633185
0.723788 0.677376 -0.000556419
0.734877 0.68279 -0.000486536
0.745942 0.687904 -0.000423585
0.757006 0.693019 -0.000369333
0.768071 0.698134 -0.00032262
0.779107 0.70298 -0.000280838
0.790114 0.707559 -0.000243778
0.80112 0.712137 -0.000212143
0.812127 0.716716 -0.000185137
0.823099 0.721055 -0.000161241
0.834038 0.725155 -0.000140249
0.844976 0.729255 -0.00012245
0.855915 0.733355 -0.000107368
0.866815 0.737242 -9.41524e-05
0.877676 0.740916 -8.26606e-05
0.888538 0.74459 -7.3033e-05
0.899399 0.748263 -6.5008e-05
0.910218 0.751748 -5.81128e-05
0.920994 0.755043 -5.22567e-05
0.93177 0.758337 -4.7537e-05
0.942546 0.761632 -4.38205e-05
0.953277 0.764758 -4.08249e-05
0.963962 0.767716 -3.84814e-05
0.974647 0.770674 -3.68744e-05
0.985332 0.773631 -3.59211e-05
0.117769 0.0699301 -0.000203788
0.128199 0.08642 -0.000228785
0.138628 0.10291 -0.0002492
0.149057 0.1194 -0.000269986
0.159622 0.135505 -0.000289117
0.170322 0.151224 -0.000306958
0.181022 0.166944 -0.000327053
0.191722 0.182664 -0.000350479
0.202467 0.198103 -0.000376257
0.213256 0.213261 -0.000404951
0.224045 0.228419 -0.000440234
0.234835 0.243577 -0.000484175
0.245665 0.258359 -0.000534366
0.256536 0.272764 -0.000591172
0.267407 0.287169 -0.000661055
0.278278 0.301575 -0.000747203
0.289187 0.315537 -0.000843793
0.300135 0.329056 -0.000949722
0.311082 0.342575 -0.00107546
0.322029 0.356094 -0.00122435
0.333011 0.369135 -0.00138326
0.344028 0.381697 -0.00154721
0.355044 0.394258 -0.00173141
0.366061 0.40682 -0.00193712
0.377107 0.418889 -0.00214041
0.388182 0.430466 -0.00233144
0.399257 0.442043 -0.002531
0.410332 0.453619 -0.00273749
0.421431 0.464706 -0.00291811
0.432553 0.475302 -0.00306185
0.443675 0.485898 -0.00319602
0.454796 0.496494 -0.00331863
0.465935 0.506613 -0.00339601
0.47709 0.516256 -0.003422
0.488245 0.525899 -0.00342882
0.4994 0.535542 -0.00341687
0.510565 0.54473 -0.00335912
0.521741 0.553464 -0.00325641
0.532916 0.562197 -0.00314043
0.544092 0.570931 -0.00301373
0.555271 0.579237 -0.00285776
0.566453 0.587116 -0.00267732
0.577635 0.594996 -0.00249765
0.588816 0.602875 -0.00232105
0.599994 0.610358 -0.00213527
0.611168 0.617445 -0.00194493
0.622342 0.624531 -0.00176634
0.633515 0.631618 -0.00160012
0.644678 0.638341 -0.00143777
0.655831 0.644701 -0.00128187
0.666983 0.651061 -0.00114117
0.678136 0.657421 -0.00101484
0.689271 0.66345 -0.000896859
0.700389 0.669149 -0.000788038
0.711507 0.674847 -0.000692367
0.722625 0.680546 -0.000608502
0.73372 0.685947 -0.000532366
0.744792 0.691049 -0.000463893
0.755863 0.696151 -0.000404687
0.766935 0.701254 -0.000353556
0.777977 0.706089 -0.00030793
0.788991 0.710657 -0.000267515
0.800004 0.715224 -0.000232909
0.811017 0.719792 -0.000203285
0.821997 0.724121 -0.000177128
0.832943 0.728211 -0.000154177
0.843889 0.732301 -0.000134662
0.854835 0.736391 -0.000118083
0.865742 0.740269 -0.000103586
0.876611 0.743934 -9.09959e-05
0.88748 0.747599 -8.04193e-05
0.898349 0.751264 -7.15808e-05
0.909176 0.754739 -6.40033e-05
0.91996 0.758026 -5.75782e-05
0.930745 0.761313 -5.23854e-05
0.941529 0.764599 -4.82845e-05
0.952268 0.767718 -4.49906e-05
0.962962 0.770668 -4.24269e-05
0.973655 0.773618 -4.06721e-05
0.984349 0.776568 -3.96455e-05
0.115683 0.076022 -0.000230591
0.126158 0.092378 -0.000256911
0.136633 0.108734 -0.000278617
0.147109 0.12509 -0.00030082
0.157714 0.141071 -0.000321506
0.168451 0.156677 -0.000341117
0.179187 0.172283 -0.000363267
0.189923 0.187889 -0.000389078
0.2007 0.203223 -0.000417699
0.211519 0.218287 -0.000449805
0.222337 0.233351 -0.000489162
0.233155 0.248414 -0.00053792
0.244012 0.26311 -0.000593779
0.254906 0.277437 -0.000657225
0.265801 0.291764 -0.000734899
0.276695 0.306091 -0.000830026
0.287626 0.319982 -0.000936766
0.298592 0.333437 -0.00105406
0.309559 0.346891 -0.00119255
0.320525 0.360346 -0.0013554
0.331525 0.373327 -0.00152919
0.342557 0.385835 -0.00170881
0.353589 0.398343 -0.00190947
0.364621 0.410851 -0.00213185
0.375681 0.422871 -0.00235154
0.386769 0.434403 -0.00255852
0.397857 0.445935 -0.00277325
0.408945 0.457466 -0.00299333
0.420056 0.468512 -0.00318571
0.431189 0.47907 -0.00333942
0.442321 0.489629 -0.00348121
0.453454 0.500188 -0.00360844
0.464603 0.510273 -0.0036879
0.475767 0.519885 -0.00371381
0.486931 0.529496 -0.00371772
0.498096 0.539108 -0.00369985
0.50927 0.548267 -0.00363423
0.520453 0.556975 -0.00352225
0.531637 0.565682 -0.00339498
0.54282 0.574389 -0.00325507
0.554007 0.582672 -0.00308529
0.565196 0.590529 -0.00289085
0.576385 0.598386 -0.00269641
0.587574 0.606243 -0.00250449
0.598759 0.613706 -0.00230391
0.609939 0.620774 -0.00209945
0.62112 0.627842 -0.00190695
0.6323 0.63491 -0.00172718
0.64347 0.641616 -0.00155232
0.654629 0.647959 -0.00138492
0.665788 0.654303 -0.00123335
0.676947 0.660647 -0.00109686
0.688089 0.666661 -0.000969774
0.699213 0.672346 -0.000852787
0.710338 0.678031 -0.000749622
0.721462 0.683716 -0.000658935
0.732564 0.689103 -0.000576791
0.743642 0.694193 -0.000503015
0.75472 0.699284 -0.00043904
0.765798 0.704374 -0.000383644
0.776848 0.709198 -0.000334308
0.787868 0.713754 -0.000290654
0.798888 0.718311 -0.000253173
0.809908 0.722868 -0.000221009
0.820895 0.727187 -0.000192658
0.831848 0.731267 -0.000167807
0.842801 0.735347 -0.000146623
0.853755 0.739428 -0.000128585
0.86467 0.743296 -0.000112838
0.875546 0.746952 -9.91776e-05
0.886423 0.750608 -8.76742e-05
0.8973 0.754264 -7.80397e-05
0.908134 0.757731 -6.97945e-05
0.918927 0.761009 -6.2813e-05
0.92972 0.764288 -5.71567e-05
0.940512 0.767566 -5.26786e-05
0.95126 0.770677 -4.90926e-05
0.961962 0.773619 -4.63143e-05
0.972664 0.776562 -4.4416e-05
0.983366 0.779504 -4.33182e-05
0.113597 0.0821138 -0.000258399
0.124118 0.0983361 -0.000285915
0.134639 0.114558 -0.000308844
0.14516 0.130781 -0.00033241
0.155807 0.146638 -0.000354626
0.166579 0.16213 -0.00037601
0.177351 0.177621 -0.00040023
0.188124 0.193113 -0.000428461
0.198933 0.208344 -0.000459982
0.209781 0.223313 -0.000495578
0.220629 0.238282 -0.000539094
0.231476 0.253251 -0.00059276
0.242359 0.26786 -0.000654396
0.253277 0.282109 -0.000724602
0.264195 0.296359 -0.000810159
0.275113 0.310608 -0.000914332
0.286065 0.324427 -0.00103128
0.29705 0.337817 -0.00115996
0.308036 0.351207 -0.00131114
0.319021 0.364597 -0.00148779
0.330038 0.377519 -0.00167624
0.341086 0.389973 -0.00187126