Variables = x, y, ugrad, ux, uy
ZONE I= 80 J= 80 F=point
0.139243 0.0117781 0.00286403 0.0024678 -0.00145349
0.149176 0.0295483 0.00383203 0.00329001 -0.00196476
0.159108 0.0473185 0.00461792 0.00398696 -0.0023301
0.169041 0.0650887 0.00544199 0.00471467 -0.00271792
0.179162 0.0823779 0.00593305 0.00502999 -0.00314647
0.189471 0.0991862 0.00646721 0.0054868 -0.00342342
0.199781 0.115995 0.00704938 0.005977 -0.00373755
0.21009 0.132803 0.00780196 0.00661785 -0.00413213
0.220483 0.149234 0.00835675 0.006966 -0.0046163
0.230961 0.165288 0.00906021 0.00754902 -0.00500995
0.241438 0.181341 0.0099285 0.00825981 -0.00550914
0.251916 0.197395 0.0111759 0.00929692 -0.00620226
0.262465 0.212992 0.0121918 0.00991263 -0.00709793
0.273087 0.228132 0.0135264 0.0109891 -0.00788694
0.283708 0.243272 0.0152309 0.0123493 -0.00891498
0.29433 0.258412 0.0176825 0.0143377 -0.010349
0.305014 0.273044 0.0197992 0.0156026 -0.0121889
0.315761 0.287168 0.0224656 0.0176945 -0.0138422
0.326508 0.301292 0.0257971 0.0202809 -0.0159429
0.337255 0.315416 0.0304061 0.0239195 -0.0187721
0.348055 0.329009 0.0343036 0.0260856 -0.0222773
0.358908 0.34207 0.0389048 0.0295874 -0.025262
0.369761 0.355131 0.0444001 0.0337191 -0.0288858
0.380615 0.368192 0.0516305 0.0392592 -0.0335325
0.391512 0.380717 0.0571645 0.0417897 -0.0390052
0.402454 0.392706 0.063195 0.0462288 -0.0430871
0.413395 0.404695 0.0700134 0.0511636 -0.0477929
0.424337 0.416684 0.0785794 0.0575171 -0.0535398
0.435313 0.428148 0.0838773 0.0586978 -0.0599163
0.446323 0.439085 0.0890502 0.0623811 -0.0635495
0.457334 0.450022 0.0945962 0.0662081 -0.0675643
0.468344 0.46096 0.101453 0.0711337 -0.0723377
0.479379 0.471391 0.103681 0.0691129 -0.0772866
0.49044 0.481316 0.105204 0.0702103 -0.0783477
0.5015 0.491242 0.106824 0.0712267 -0.0796126
0.51256 0.501167 0.109335 0.0730303 -0.0813683
0.523637 0.510614 0.107013 0.0675761 -0.0829776
0.53473 0.519582 0.103929 0.0657072 -0.0805216
0.545824 0.528551 0.101116 0.0638588 -0.0784001
0.556917 0.537519 0.0991123 0.0626969 -0.0767617
0.568017 0.546041 0.0933214 0.0555202 -0.0750093
0.579125 0.554116 0.0871808 0.0519251 -0.0700305
0.590232 0.562191 0.0817217 0.0486047 -0.0656965
0.60134 0.570266 0.0771862 0.0459736 -0.062001
0.612446 0.577929 0.0703789 0.0392374 -0.0584261
0.623551 0.585181 0.0636828 0.0355378 -0.0528448
0.634656 0.592433 0.0579248 0.0322648 -0.0481068
0.645761 0.599684 0.0531175 0.0296213 -0.0440914
0.656857 0.60656 0.0472677 0.0245714 -0.0403792
0.667942 0.613061 0.0417585 0.0217225 -0.0356638
0.679027 0.619561 0.0371515 0.0192801 -0.0317571
0.690113 0.626061 0.0333483 0.01732 -0.0284978
0.701181 0.632222 0.0291966 0.0140855 -0.0255742
0.712233 0.638042 0.0253893 0.0122532 -0.0222368
0.723285 0.643862 0.0222699 0.0107162 -0.0195221
0.734337 0.649683 0.0197221 0.00949374 -0.0172868
0.745364 0.655198 0.0171176 0.00763362 -0.0153213
0.756367 0.660407 0.0147633 0.00658397 -0.0132139
0.76737 0.665616 0.0128584 0.00571445 -0.0115188
0.778373 0.670826 0.0113122 0.00502718 -0.0101338
0.789346 0.675762 0.00979473 0.00402418 -0.00892988
0.800288 0.680425 0.00843024 0.00346264 -0.00768628
0.81123 0.685088 0.00733298 0.00299993 -0.00669126
0.822172 0.689751 0.00644453 0.00263528 -0.00588109
0.833079 0.694171 0.00559538 0.00211216 -0.00518141
0.843949 0.698347 0.00483205 0.00182279 -0.00447506
0.85482 0.702524 0.00422068 0.00158479 -0.00391185
0.865691 0.706701 0.00372739 0.00139802 -0.00345528
0.876521 0.710661 0.00326554 0.00112893 -0.0030642
0.887312 0.714405 0.00285056 0.00098389 -0.00267538
0.898102 0.718149 0.0025221 0.000865368 -0.002369
0.908893 0.721893 0.00226183 0.000774035 -0.00212527
0.919638 0.725445 0.00202463 0.000637038 -0.0019218
0.930339 0.728804 0.00181342 0.000568421 -0.00172203
0.941039 0.732164 0.00165403 0.000514015 -0.00157213
0.95174 0.735524 0.00153709 0.0004751 -0.00146182
0.962392 0.738712 0.00143683 0.000406513 -0.00137812
0.972997 0.74173 0.00134958 0.000379646 -0.00129508
0.983602 0.744748 0.00129247 0.000361187 -0.00124098
0.994207 0.747766 0.00124859 0.000345126 -0.00119994
0.137075 0.0175011 0.00283427 0.00239237 -0.00151976
0.147059 0.0351452 0.00350262 0.0029171 -0.00193878
0.157042 0.0527893 0.0041509 0.00350503 -0.00222368
0.167026 0.0704333 0.00481179 0.00409016 -0.00253455
0.177193 0.087606 0.00529828 0.00442023 -0.00292118
0.187542 0.104307 0.00579646 0.00485419 -0.00316793
0.197891 0.121008 0.00632018 0.00528592 -0.00346464
0.208241 0.13771 0.00696162 0.00582068 -0.0038189
0.21867 0.154043 0.0075303 0.00618924 -0.00428939
0.229179 0.170009 0.00820142 0.00673987 -0.00467306
0.239689 0.185974 0.00900639 0.00737235 -0.00517335
0.250198 0.20194 0.0100974 0.00824952 -0.00582263
0.260776 0.217457 0.0111435 0.00889079 -0.00671796
0.271423 0.232525 0.0124277 0.00990666 -0.00750378
0.28207 0.247593 0.0140223 0.0111203 -0.00854193
0.292717 0.262662 0.0161981 0.0128227 -0.00989734
0.303424 0.277228 0.0183412 0.0140965 -0.011734
0.314191 0.291293 0.020901 0.0160664 -0.0133687
0.324959 0.305358 0.0240169 0.0183765 -0.0154633
0.335726 0.319423 0.0281221 0.0215136 -0.0181112
0.346545 0.332962 0.032038 0.0236897 -0.0215692
0.357414 0.345974 0.036454 0.0270149 -0.0244763
0.368284 0.358986 0.0415808 0.030717 -0.0280255
0.379154 0.371998 0.0479984 0.0355163 -0.0322868
0.390067 0.384479 0.0536046 0.0381882 -0.037618
0.401022 0.396428 0.0594416 0.0425188 -0.0415385
0.411977 0.408377 0.0657966 0.0469733 -0.0460727
0.422932 0.420327 0.0733265 0.0524987 -0.0511924
0.43392 0.431753 0.0788978 0.0541757 -0.0573572
0.444942 0.442658 0.0840622 0.0580207 -0.0608281
0.455964 0.453562 0.0892403 0.061512 -0.0646538
0.466985 0.464466 0.0951114 0.0657831 -0.0686932
0.478031 0.474867 0.0979273 0.0647105 -0.0735005
0.489101 0.484766 0.0997918 0.0663121 -0.0745727
0.500171 0.494664 0.101311 0.0672341 -0.0757861
0.511241 0.504562 0.103139 0.0686898 -0.0769377
0.522326 0.513984 0.101644 0.0644323 -0.0786124
0.533428 0.52293 0.0992067 0.0632353 -0.0764412
0.544529 0.531875 0.0965521 0.0614395 -0.0744814
0.555631 0.540821 0.0942152 0.0601549 -0.0725113
0.566739 0.549322 0.0892557 0.0540579 -0.0710235
0.577854 0.557378 0.0838423 0.0510362 -0.0665195
0.588969 0.565435 0.0786476 0.047759 -0.0624862
0.600084 0.573491 0.0740045 0.0450728 -0.0586951
0.611198 0.581137 0.0678362 0.0390694 -0.0554556
0.62231 0.588373 0.061739 0.0357095 -0.050364
0.633422 0.595609 0.0562111 0.0324013 -0.045933
0.644534 0.602845 0.0513824 0.0296871 -0.0419384
0.655636 0.609706 0.0459245 0.0250211 -0.0385097
0.666728 0.616193 0.0408094 0.0223057 -0.034174
0.67782 0.62268 0.0363456 0.0197736 -0.030496
0.688912 0.629167 0.0325335 0.0177265 -0.02728
0.699987 0.635315 0.0285808 0.0146474 -0.0245421
0.711046 0.641124 0.0249941 0.012835 -0.0214468
0.722105 0.646933 0.0219448 0.0112017 -0.0188705
0.733163 0.652741 0.0193837 0.00990024 -0.0166647
0.744197 0.658245 0.016865 0.00808509 -0.0148006
0.755207 0.663444 0.0146212 0.00701505 -0.0128284
0.766217 0.668644 0.0127445 0.00607015 -0.011206
0.777227 0.673843 0.0111836 0.00532507 -0.00983443
0.788206 0.678769 0.00969807 0.00432664 -0.00867945
0.799156 0.683423 0.008386 0.00374004 -0.00750581
0.810105 0.688077 0.00729828 0.00322727 -0.00654596
0.821055 0.692731 0.00639783 0.00282555 -0.00574008
0.831968 0.697142 0.00555893 0.00229659 -0.00506234
0.842847 0.701311 0.00482023 0.00198804 -0.00439117
0.853725 0.705479 0.0042115 0.00171943 -0.00384452
0.864603 0.709647 0.00370994 0.0015103 -0.0033886
0.875442 0.7136 0.00325061 0.00123462 -0.00300702
0.88624 0.717336 0.00284757 0.00107677 -0.00263614
0.897039 0.721073 0.00251959 0.000939844 -0.00233774
0.907837 0.724809 0.0022539 0.000834985 -0.00209353
0.918591 0.728354 0.00201671 0.000692631 -0.00189404
0.9293 0.731706 0.00181169 0.000615622 -0.00170389
0.940008 0.735059 0.00165221 0.000549657 -0.0015581
0.950717 0.738411 0.00153153 0.000502093 -0.00144689
0.961379 0.741593 0.00143061 0.000429633 -0.00136458
0.971992 0.744605 0.00134737 0.000397823 -0.00128731
0.982606 0.747616 0.00129122 0.000373708 -0.00123596
0.99322 0.750627 0.00125364 0.000351394 -0.00120339
0.134907 0.0232241 0.00314373 0.00261186 -0.00174964
0.144942 0.0407421 0.00372025 0.0030188 -0.0021742
0.154977 0.05826 0.00435752 0.00360792 -0.00244355
0.165011 0.075778 0.00500357 0.00418401 -0.00274404
0.175223 0.092834 0.00545972 0.00449066 -0.00310525
0.185613 0.109428 0.00597264 0.00493963 -0.00335744
0.196002 0.126022 0.00650666 0.0053707 -0.00367317
0.206391 0.142616 0.00714995 0.00589874 -0.00404063
0.216857 0.158852 0.00770876 0.00625115 -0.00451089
0.227398 0.17473 0.00841068 0.0068162 -0.00492737
0.237939 0.190608 0.00924264 0.00744448 -0.00547778
0.24848 0.206486 0.0103438 0.0083053 -0.0061658
0.259087 0.221923 0.0113832 0.0089141 -0.00707931
0.269759 0.236919 0.0127245 0.0099472 -0.00793516
0.280432 0.251915 0.0143666 0.0111409 -0.00907088
0.291104 0.266911 0.0165511 0.0127975 -0.0104959
0.301834 0.281412 0.0186745 0.0139971 -0.012362
0.312622 0.295418 0.0213145 0.0159781 -0.014107
0.32341 0.309424 0.0244805 0.0182236 -0.0163461
0.334197 0.32343 0.0285431 0.0212434 -0.0190637
0.345034 0.336914 0.0323688 0.0232696 -0.0225004
0.355921 0.349878 0.0368562 0.026595 -0.0255163
0.366807 0.362842 0.0419782 0.030158 -0.0292004
0.377694 0.375805 0.0482052 0.034731 -0.033429
0.388621 0.388242 0.0535708 0.037193 -0.0385553
0.39959 0.400151 0.0594395 0.0415533 -0.0425014
0.410558 0.41206 0.0656841 0.0458175 -0.0470655
0.421527 0.423969 0.0728203 0.0510432 -0.0519365
0.432528 0.435359 0.0780052 0.0525763 -0.0576241
0.443561 0.44623 0.083209 0.0565744 -0.061017
0.454593 0.457102 0.0882193 0.0599169 -0.0647503
0.465626 0.467973 0.0935869 0.0639291 -0.0683489
0.476682 0.478344 0.0960202 0.0629368 -0.0725178
0.487762 0.488215 0.0980495 0.0648671 -0.0735252
0.498841 0.498086 0.0994728 0.0657527 -0.0746419
0.509921 0.507957 0.100876 0.0670731 -0.0753464
0.521015 0.517354 0.0991719 0.0631365 -0.0764777
0.532125 0.526277 0.0970792 0.0623626 -0.0743994
0.543235 0.5352 0.0944748 0.0606097 -0.0724704
0.554345 0.544123 0.0919037 0.0592866 -0.0702239
0.565461 0.552603 0.086945 0.0535966 -0.0684604
0.576583 0.560641 0.0819719 0.0509391 -0.0642231
0.587706 0.568679 0.0769286 0.047695 -0.060359
0.598829 0.576716 0.0722137 0.0449864 -0.0564893
0.609949 0.584345 0.0661599 0.0393078 -0.0532168
0.621068 0.591565 0.0604645 0.0361623 -0.0484587
0.632187 0.598785 0.0550968 0.0328297 -0.0442478
0.643306 0.606005 0.0502703 0.0300655 -0.0402885
0.654415 0.612852 0.044935 0.0255807 -0.036943
0.665514 0.619326 0.040105 0.0229418 -0.032895
0.676612 0.625799 0.0357545 0.020342 -0.0294039
0.687711 0.632273 0.0319557 0.0182247 -0.0262494
0.698793 0.638408 0.0280859 0.0152149 -0.0236077
0.709859 0.644205 0.0246671 0.013402 -0.0207088
0.720924 0.650003 0.0216794 0.0116928 -0.0182558
0.731989 0.6558 0.0191229 0.0103241 -0.0160965
0.74303 0.661293 0.0166472 0.00852103 -0.014301
0.754047 0.666482 0.0144901 0.00742472 -0.0124433
0.765064 0.671671 0.0126406 0.00641827 -0.0108899
0.77608 0.67686 0.0110771 0.00562237 -0.00954418
0.787067 0.681777 0.00961026 0.00461647 -0.00842884
0.798024 0.686422 0.00833957 0.00400342 -0.0073158
0.80898 0.691066 0.00726203 0.00344859 -0.00639095
0.819937 0.695711 0.00635684 0.00301334 -0.00559725
0.830858 0.700114 0.00552501 0.00247402 -0.00494013
0.841744 0.704274 0.00480544 0.002146 -0.00429964
0.85263 0.708434 0.00419987 0.00185102 -0.00376996
0.863516 0.712594 0.00369396 0.00162117 -0.00331921
0.874362 0.716538 0.00323694 0.00133702 -0.00294791
0.885168 0.720267 0.00284275 0.00116625 -0.00259251
0.895975 0.723996 0.00251539 0.00101313 -0.00230233
0.906781 0.727725 0.00224631 0.000895469 -0.00206011
0.917543 0.731262 0.00200959 0.000746863 -0.00186565
0.92826 0.734608 0.00180882 0.000661348 -0.00168358
0.938978 0.737954 0.00164918 0.000585016 -0.00154193
0.949695 0.741299 0.0015259 0.000529149 -0.00143121
0.960365 0.744474 0.00142505 0.000452266 -0.00135138
0.970988 0.747479 0.00134466 0.00041523 -0.00127894
0.98161 0.750484 0.00128979 0.000385371 -0.00123087
0.992233 0.753488 0.00125667 0.000356454 -0.00120506
0.132739 0.0289471 0.00338923 0.0027772 -0.00194268
0.142825 0.046339 0.00386635 0.00306019 -0.00236302
0.152911 0.0637308 0.004475 0.00363381 -0.00261172
0.162996 0.0811226 0.00508683 0.0041834 -0.00289395
0.173254 0.098062 0.00553166 0.00448319 -0.00324041
0.183683 0.114549 0.00605063 0.00493796 -0.00349666
0.194113 0.131036 0.0065843 0.00535955 -0.00382468
0.204542 0.147523 0.00721714 0.0058702 -0.00419855
0.215043 0.163661 0.00778235 0.00621948 -0.00467794
0.225616 0.179451 0.00850519 0.00678811 -0.00512444
0.236189 0.195241 0.00935075 0.00740093 -0.00571513
0.246763 0.211031 0.0104467 0.00823197 -0.00643174
0.257398 0.226388 0.0115037 0.00882651 -0.00737757
0.268096 0.241312 0.0128862 0.00985929 -0.00829742
0.278794 0.256236 0.0145541 0.0110153 -0.00951236
0.289492 0.27116 0.0167244 0.0126077 -0.0109888
0.300245 0.285596 0.0188644 0.0137595 -0.0129052
0.311053 0.299543 0.0215566 0.0157232 -0.0147468
0.32186 0.313489 0.0247377 0.0178796 -0.017096
0.332668 0.327436 0.0287272 0.0207635 -0.0198527
0.343524 0.340867 0.0325221 0.0226847 -0.0233043
0.354427 0.353782 0.0370362 0.0259701 -0.0264051
0.36533 0.366697 0.0421051 0.029371 -0.0301692
0.376233 0.379612 0.0481164 0.0337153 -0.0343288
0.387176 0.392004 0.0533396 0.0360418 -0.0393205
0.398158 0.403873 0.0591784 0.0403799 -0.0432614
0.40914 0.415742 0.0652618 0.0444458 -0.0477878
0.420122 0.427611 0.0720089 0.0494021 -0.05239
0.431135 0.438965 0.0769457 0.0508834 -0.0577194
0.442179 0.449803 0.0821131 0.0549668 -0.0610018
0.453223 0.460641 0.0869155 0.0581727 -0.0645773
0.464267 0.471479 0.0918287 0.0619863 -0.0677511
0.475334 0.48182 0.0940303 0.0611464 -0.071434
0.486423 0.491664 0.0961359 0.0633192 -0.072338
0.497512 0.501508 0.0974379 0.064194 -0.0733026
0.508601 0.511352 0.0984965 0.0654478 -0.073608
0.519704 0.520724 0.0967086 0.0618568 -0.074339
0.530822 0.529624 0.0948646 0.0614142 -0.0723021
0.54194 0.538525 0.0922954 0.0597351 -0.0703574
0.553058 0.547425 0.0895751 0.0584321 -0.0678925
0.564183 0.555885 0.0846928 0.0531337 -0.0659522
0.575313 0.563904 0.0800706 0.0507647 -0.0619214
0.586443 0.571922 0.0751693 0.0475862 -0.0581891
0.597573 0.579941 0.0704509 0.0448982 -0.0542907
0.608701 0.587553 0.0645462 0.0395155 -0.0510367
0.619827 0.594757 0.059182 0.0365368 -0.0465571
0.630952 0.601962 0.0539688 0.0332105 -0.0425405
0.642078 0.609166 0.0491909 0.0304258 -0.0386525
0.653194 0.615998 0.0439893 0.026098 -0.0354112
0.664299 0.622458 0.0393972 0.0235131 -0.0316113
0.675405 0.628919 0.0351575 0.0208704 -0.0282926
0.68651 0.635379 0.0314004 0.0187019 -0.0252234
0.697599 0.641502 0.0276151 0.0157467 -0.0226855
0.708671 0.647287 0.0243366 0.0139249 -0.0199591
0.719743 0.653073 0.0214097 0.0121572 -0.0176232
0.730815 0.658858 0.0188742 0.0107325 -0.0155257
0.741863 0.664341 0.0164407 0.00893377 -0.0138016
0.752887 0.669519 0.0143555 0.00780889 -0.0120458
0.763911 0.674698 0.0125335 0.0067515 -0.0105596
0.774934 0.679877 0.0109765 0.00591071 -0.00924918
0.785928 0.684784 0.00952733 0.00489337 -0.00817465
0.796892 0.68942 0.00829041 0.00425348 -0.0071161
0.807856 0.694056 0.00722348 0.0036625 -0.00622614
0.818819 0.698691 0.00631845 0.00319663 -0.00545017
0.829748 0.703085 0.00549295 0.00264483 -0.00481429
0.840642 0.707237 0.00478861 0.00229738 -0.00420153
0.851535 0.711389 0.0041865 0.00197915 -0.00368914
0.862429 0.715541 0.00367885 0.00172993 -0.00324673
0.873282 0.719477 0.00322362 0.00143615 -0.00288604
0.884097 0.723198 0.0028362 0.00125253 -0.00254464
0.894911 0.72692 0.00250958 0.00108484 -0.00226299
0.905725 0.730641 0.00223849 0.000955036 -0.00202454
0.916495 0.734171 0.0020019 0.000799485 -0.00183533
0.927221 0.73751 0.00180415 0.000705478 -0.0016605
0.937947 0.740848 0.00164439 0.000619686 -0.00152315
0.948673 0.744187 0.00151936 0.000555841 -0.00141404
0.959351 0.747355 0.00141843 0.000474034 -0.00133688
0.969983 0.750353 0.00134023 0.000431571 -0.00126885
0.980615 0.753352 0.0012868 0.000395915 -0.00122438
0.991246 0.75635 0.00125701 0.000360299 -0.00120427
0.130572 0.0346701 0.0036211 0.00293183 -0.00212527
0.140708 0.0519358 0.00401691 0.00310725 -0.00254569
0.150845 0.0692016 0.00460023 0.00366677 -0.00277794
0.160981 0.0864673 0.00518432 0.00419524 -0.00304584
0.171285 0.10329 0.00561753 0.00448613 -0.00338102
0.181754 0.11967 0.00613924 0.00494191 -0.00364249
0.192223 0.13605 0.00667151 0.00535308 -0.00398167
0.202693 0.152429 0.00729776 0.00584935 -0.00436375
0.21323 0.16847 0.00786893 0.00619278 -0.00485486
0.223835 0.184172 0.00860907 0.00675945 -0.0053316
0.23444 0.199874 0.00946631 0.00735478 -0.00595973
0.245045 0.215576 0.0105623 0.00815995 -0.00670659
0.255709 0.230853 0.0116373 0.0087361 -0.00768808
0.266432 0.245705 0.0130546 0.00975931 -0.00867061
0.277156 0.260558 0.0147446 0.0108741 -0.00995776
0.287879 0.27541 0.0169086 0.0124087 -0.0114859
0.298655 0.28978 0.0190668 0.0135078 -0.0134567
0.309483 0.303667 0.0217989 0.0154393 -0.015389
0.320311 0.317555 0.0249867 0.0175031 -0.0178319
0.33114 0.331443 0.0289149 0.0202649 -0.0206253
0.342014 0.34482 0.0326837 0.0220795 -0.0240982
0.352933 0.357686 0.0372005 0.0253028 -0.0272699
0.363853 0.370552 0.0422012 0.0285431 -0.0310842
0.374773 0.383419 0.0480171 0.0326882 -0.0351728
0.38573 0.395766 0.0531105 0.0348845 -0.0400475
0.396726 0.407595 0.0588791 0.0391683 -0.0439613
0.407721 0.419424 0.0647822 0.0430478 -0.0484109
0.418717 0.431253 0.0711777 0.0477833 -0.0527543
0.429743 0.44257 0.0758924 0.0492204 -0.0577669
0.440798 0.453376 0.080967 0.0533417 -0.0609124
0.451853 0.464181 0.0855447 0.0564318 -0.0642911
0.462908 0.474986 0.090062 0.0601046 -0.0670716
0.473985 0.485297 0.0920688 0.0594133 -0.0703329
0.485084 0.495113 0.0941827 0.0617652 -0.0711016
0.496182 0.50493 0.0953524 0.0626524 -0.0718802
0.507281 0.514746 0.0961368 0.0638919 -0.0718339
0.518393 0.524093 0.0943007 0.0606233 -0.0722318
0.52952 0.532971 0.0926336 0.060444 -0.0701962
0.540646 0.541849 0.0900931 0.0588611 -0.0682066
0.551772 0.550727 0.0872886 0.0576175 -0.0655708
0.562904 0.559166 0.0825069 0.0526767 -0.0635024
0.574042 0.567166 0.0781703 0.0505415 -0.0596335
0.58518 0.575166 0.0734063 0.0474505 -0.0560083
0.596317 0.583166 0.0687334 0.044811 -0.0521177
0.607452 0.590761 0.0629887 0.0396938 -0.048908
0.618585 0.597949 0.0579048 0.0368489 -0.0446669
0.629718 0.605138 0.0528431 0.0335499 -0.0408264
0.64085 0.612327 0.0481455 0.0307644 -0.0370343
0.651973 0.619144 0.0430802 0.0265743 -0.0339074
0.663085 0.625591 0.0386921 0.0240283 -0.0303269
0.674197 0.632038 0.0345615 0.0213608 -0.0271701
0.68531 0.638484 0.030865 0.0191545 -0.0242023
0.696405 0.644595 0.0271638 0.016244 -0.0217716
0.707484 0.650369 0.0240057 0.0144086 -0.0192007
0.718563 0.656143 0.0211393 0.0125952 -0.0169774
0.729642 0.661917 0.0186355 0.011123 -0.0149519
0.740696 0.667388 0.0162433 0.00932406 -0.0133006
0.751727 0.672557 0.0142192 0.00816981 -0.0116379
0.762757 0.677725 0.0124249 0.00706948 -0.0102176
0.773788 0.682894 0.0108804 0.00618858 -0.00894895
0.784789 0.687792 0.00944813 0.00515772 -0.00791613
0.79576 0.692418 0.00823959 0.00449121 -0.00690795
0.806731 0.697045 0.00718352 0.00386856 -0.00605287
0.817702 0.701672 0.00628186 0.00337452 -0.00529853
0.828638 0.706057 0.00546222 0.00280919 -0.00468447
0.839539 0.7102 0.00477034 0.00244258 -0.00409755
0.85044 0.714344 0.00417186 0.00210349 -0.00360274
0.861341 0.718487 0.00366417 0.0018361 -0.00317094
0.872203 0.722416 0.00321041 0.00153209 -0.00282124
0.883025 0.72613 0.00282826 0.00133577 -0.00249294
0.893847 0.729843 0.00250244 0.00115479 -0.00222006
0.904669 0.733557 0.00223022 0.0010134 -0.00198668
0.915447 0.73708 0.0019935 0.000850547 -0.00180295
0.926182 0.740411 0.0017979 0.000748112 -0.00163487
0.936916 0.743743 0.001638 0.000653537 -0.00150198
0.94765 0.747075 0.00151177 0.000581992 -0.00139526
0.958338 0.750236 0.00141066 0.000494954 -0.00132098
0.968978 0.753228 0.00133415 0.000446896 -0.00125708
0.979619 0.75622 0.00128213 0.000405395 -0.00121635
0.99026 0.759211 0.00125491 0.000363106 -0.00120123
0.128404 0.0403931 0.00383586 0.00307258 -0.00229632
0.138591 0.0575327 0.00416279 0.00315213 -0.002719
0.148779 0.0746723 0.00472184 0.00369707 -0.00293726
0.158967 0.0918119 0.00528065 0.00420592 -0.00319304
0.169315 0.108518 0.00570433 0.00448816 -0.00352076
0.179825 0.124791 0.00622621 0.00494125 -0.00378811
0.190334 0.141063 0.00675603 0.00534089 -0.0041375
0.200844 0.157336 0.00737713 0.00582335 -0.00452887
0.211417 0.173279 0.00795554 0.00615991 -0.00503451
0.222054 0.188893 0.00870993 0.00671998 -0.00554118
0.23269 0.204508 0.00957722 0.00729583 -0.00620435
0.243327 0.220122 0.0106758 0.00807597 -0.00698227
0.25402 0.235319 0.0117707 0.00863164 -0.00800274
0.264769 0.250099 0.0132178 0.00963757 -0.00904583
0.275517 0.264879 0.0149266 0.010708 -0.0103991
0.286266 0.279659 0.017088 0.0121869 -0.0119782
0.297065 0.293964 0.0192675 0.0132307 -0.0140066
0.307914 0.307792 0.0220292 0.0151182 -0.0160226
0.318762 0.321621 0.0252167 0.0170868 -0.0185452
0.329611 0.335449 0.0290894 0.0197344 -0.0213717
0.340503 0.348773 0.0328372 0.0214422 -0.0248699
0.35144 0.36159 0.0373367 0.0245873 -0.0280979
0.362376 0.374408 0.0422576 0.0276703 -0.0319383
0.373312 0.387226 0.0478911 0.031637 -0.0359535
0.384285 0.399529 0.0528647 0.033709 -0.0407232
0.395294 0.411318 0.0585316 0.037917 -0.0445898
0.406303 0.423107 0.0642414 0.0416234 -0.0489332
0.417312 0.434896 0.0703133 0.0461741 -0.0530275
0.42835 0.446176 0.0748247 0.0475739 -0.0577535
0.439417 0.456948 0.0797654 0.0517019 -0.0607407
0.450483 0.467721 0.08411 0.0546961 -0.0638969
0.46155 0.478493 0.0882771 0.0582705 -0.066313
0.472637 0.488773 0.0901145 0.0577233 -0.0692
0.483745 0.498563 0.0921898 0.060211 -0.0698112
0.494853 0.508352 0.0932247 0.06113 -0.0703844
0.505961 0.518141 0.0937897 0.0623915 -0.0700272
0.517082 0.527463 0.0919288 0.059424 -0.0701405
0.528217 0.536319 0.0903897 0.0594604 -0.068079
0.539352 0.545174 0.0878777 0.0579899 -0.0660278
0.550486 0.554029 0.0850383 0.056831 -0.0632594
0.561626 0.562448 0.0803719 0.052219 -0.0610968
0.572771 0.570429 0.0762755 0.0502786 -0.0573586
0.583916 0.57841 0.0716482 0.0472901 -0.0538248
0.595062 0.586391 0.0670562 0.0447166 -0.0499695
0.606204 0.593969 0.061477 0.0398407 -0.0468202
0.617343 0.601141 0.0566374 0.0371066 -0.042789
0.628483 0.608314 0.0517257 0.0338497 -0.0391119
0.639623 0.615487 0.0471301 0.0310767 -0.0354328
0.650752 0.62229 0.0422016 0.02701 -0.0324259
0.661871 0.628724 0.0379931 0.0244933 -0.029044
0.67299 0.635157 0.0339705 0.0218139 -0.0260412
0.684109 0.64159 0.0303469 0.01958 -0.0231854
0.695211 0.647688 0.0267287 0.0167077 -0.0208633
0.706297 0.653451 0.0236767 0.0148562 -0.0184357
0.717382 0.659213 0.0208702 0.0130069 -0.0163214
0.728468 0.664975 0.018405 0.0114939 -0.0143748
0.739529 0.670436 0.0160532 0.00969246 -0.0127969
0.750567 0.675594 0.0140827 0.00850907 -0.0112214
0.761604 0.680753 0.0123159 0.00737201 -0.00986591
0.772642 0.685911 0.0107877 0.00645496 -0.00864338
0.783649 0.690799 0.0093719 0.00540978 -0.0076529
0.794628 0.695417 0.00818782 0.00471728 -0.00669236
0.805606 0.700034 0.00714274 0.00406649 -0.00587217
0.816584 0.704652 0.00624653 0.00354639 -0.00514221
0.827528 0.709028 0.00543245 0.0029672 -0.00455052
0.838436 0.713163 0.00475104 0.00258188 -0.00398827
0.849345 0.717299 0.00415628 0.00222381 -0.00351131
0.860254 0.721434 0.00364964 0.00193929 -0.00309177
0.871123 0.725355 0.00319713 0.00162487 -0.00275344
0.881953 0.729061 0.00281917 0.00141611 -0.0024377
0.892783 0.732767 0.00249414 0.00122279 -0.00217383
0.903613 0.736473 0.00222136 0.00107035 -0.00194648
0.9144 0.739988 0.00198433 0.00090006 -0.00176846
0.925142 0.743313 0.00179023 0.000789303 -0.00160684
0.935885 0.746638 0.00163015 0.000686469 -0.00147856
0.946628 0.749962 0.00150304 0.000607468 -0.00137481
0.957324 0.753117 0.00140165 0.000515026 -0.0013036
0.967974 0.756102 0.00132645 0.000461246 -0.00124367
0.978623 0.759088 0.00127569 0.000413862 -0.00120669
0.989273 0.762073 0.00125053 0.000364999 -0.00119608
0.126236 0.0461161 0.00402953 0.00319579 -0.00245439
0.136475 0.0631296 0.00429816 0.00318955 -0.00288113
0.146713 0.0801431 0.00483418 0.00371979 -0.00308747
0.156952 0.0971566 0.00536993 0.00421021 -0.0033332
0.167346 0.113746 0.00578519 0.00448344 -0.00365611
0.177895 0.129912 0.00630461 0.00493023 -0.00392949
0.188445 0.146077 0.00683058 0.00531682 -0.00428816
0.198994 0.162243 0.00744707 0.00578501 -0.00468962
0.209604 0.178089 0.00803269 0.00611284 -0.00521127
0.220272 0.193615 0.0087977 0.0066614 -0.00574675
0.230941 0.209141 0.00967266 0.00721495 -0.00644242
0.241609 0.224667 0.0107746 0.00796912 -0.00725153
0.252331 0.239784 0.0118897 0.00850128 -0.00831228
0.263105 0.254492 0.0133603 0.00948181 -0.00941235
0.273879 0.2692 0.0150834 0.0105034 -0.0108253
0.284653 0.283909 0.0172429 0.011926 -0.0124535
0.295475 0.298148 0.0194447 0.0129112 -0.0145395
0.306344 0.311917 0.0222243 0.0147428 -0.0166304
0.317213 0.325687 0.0254034 0.0166121 -0.019219
0.328082 0.339456 0.0292221 0.019149 -0.0220737
0.338993 0.352725 0.0329513 0.0207505 -0.025597
0.349946 0.365494 0.0374137 0.023803 -0.0288653
0.360899 0.378263 0.0422429 0.0267306 -0.0327099
0.371851 0.391032 0.0477011 0.0305335 -0.0366483
0.382839 0.403291 0.0525625 0.0324886 -0.0413196
0.393862 0.41504 0.0581005 0.036605 -0.0451192
0.404885 0.426789 0.0636065 0.0401501 -0.0493331
0.415907 0.438538 0.0693756 0.0445435 -0.053187
0.426958 0.449782 0.0737002 0.045916 -0.0576493
0.438035 0.460521 0.0784763 0.0500297 -0.0604612
0.449113 0.47126 0.0825841 0.0529461 -0.0633786
0.460191 0.481999 0.0864383 0.0564539 -0.0654564
0.471288 0.49225 0.0881294 0.0560513 -0.0680077
0.482406 0.502012 0.0901344 0.0586452 -0.0684467
0.493524 0.511774 0.0910377 0.0596125 -0.0688055
0.504641 0.521536 0.0914278 0.0609214 -0.0681735
0.515771 0.530833 0.0895639 0.0582409 -0.0680418
0.526914 0.539666 0.0881209 0.0584597 -0.0659375
0.538057 0.548499 0.085642 0.0571133 -0.0638172
0.5492 0.557332 0.0828063 0.0560556 -0.0609479
0.560348 0.565729 0.0782686 0.0517509 -0.0587181
0.571501 0.573692 0.0743821 0.0499781 -0.0550899
0.582653 0.581654 0.0698936 0.0471019 -0.0516384
0.593806 0.589617 0.0654085 0.0446056 -0.0478394
0.604955 0.597176 0.06 0.0399534 -0.044763
0.616102 0.604334 0.0553797 0.0373141 -0.0409215
0.627248 0.611491 0.0506176 0.0341094 -0.037399
0.638395 0.618648 0.0461389 0.0313581 -0.0338448
0.649531 0.625436 0.0413478 0.027405 -0.0309614
0.660657 0.631856 0.0373014 0.0249118 -0.0277632
0.671783 0.638276 0.0333857 0.02223 -0.0249085
0.682908 0.644696 0.0298431 0.019976 -0.0221714
0.694017 0.650781 0.0263073 0.0171383 -0.0199587
0.705109 0.656532 0.0233507 0.0152702 -0.0176657
0.716202 0.662283 0.0206036 0.0133924 -0.0156574
0.727294 0.668034 0.0181812 0.0118441 -0.013794
0.738362 0.673483 0.0158693 0.0100394 -0.01229
0.749407 0.678632 0.0139467 0.00882779 -0.0107973
0.760451 0.68378 0.0122074 0.00765893 -0.00950585
0.771495 0.688928 0.0106978 0.00670913 -0.00833246
0.78251 0.693806 0.00929811 0.00564971 -0.00738482
0.793496 0.698415 0.00813563 0.00493215 -0.00647012
0.804481 0.703023 0.00710154 0.00425608 -0.00568485
0.815467 0.707632 0.00621209 0.00371178 -0.00498125
0.826418 0.712 0.0054034 0.00311889 -0.0044124
0.837334 0.716127 0.00473101 0.00271544 -0.00387412
0.84825 0.720254 0.00413997 0.00233992 -0.00341528
0.859166 0.724381 0.00363508 0.00203923 -0.00300921
0.870044 0.728293 0.00318368 0.00171448 -0.0026826
0.880881 0.731992 0.00280912 0.00149358 -0.00237915
0.891719 0.735691 0.00248484 0.00128875 -0.00212451
0.902557 0.739389 0.00221182 0.00112572 -0.00190392
0.913352 0.742897 0.00197433 0.000948011 -0.00173184
0.924103 0.746215 0.00178125 0.000829076 -0.00157654
0.934854 0.749532 0.0016209 0.000718404 -0.001453
0.945606 0.75285 0.00149311 0.000632169 -0.00135268
0.956311 0.755998 0.00139134 0.000534242 -0.00128468
0.966969 0.758977 0.00131712 0.000474651 -0.00122862
0.977628 0.761955 0.00126745 0.000421353 -0.00119536
0.988286 0.764934 0.00124402 0.000366062 -0.00118894
0.124068 0.0518391 0.00424943 0.00334194 -0.00262471
0.134358 0.0687265 0.00447965 0.00326871 -0.00306314
0.144647 0.0856138 0.0049961 0.00378578 -0.0032602
0.154937 0.102501 0.00551547 0.00426246 -0.00350027
0.165376 0.118974 0.00592742 0.00452843 -0.00382462
0.175966 0.135033 0.00644825 0.004971 -0.0041072
0.186556 0.151091 0.00697734 0.00534993 -0.00447901
0.197145 0.167149 0.00759825 0.0058103 -0.00489631
0.20779 0.182898 0.00819996 0.00613392 -0.00544191
0.218491 0.198336 0.00898422 0.00667657 -0.00601161
0.229191 0.213774 0.00987985 0.00721779 -0.00674648
0.239892 0.229212 0.0110019 0.00795822 -0.00759668
0.250642 0.244249 0.0121543 0.00847535 -0.00871182
0.261441 0.258886 0.0136651 0.00944203 -0.00987846
0.272241 0.273522 0.0154265 0.0104339 -0.0113627
0.283041 0.288158 0.0176142 0.0118231 -0.0130566
0.293885 0.302331 0.0198677 0.0127647 -0.0152245
0.304775 0.316042 0.0226927 0.0145612 -0.0174049
0.315664 0.329752 0.0259009 0.0163642 -0.0200766
0.326554 0.343463 0.0297121 0.0188286 -0.0229846
0.337483 0.356678 0.033465 0.0203451 -0.0265704
0.348452 0.369398 0.0379254 0.0233346 -0.0298971
0.359421 0.382119 0.0427107 0.0261539 -0.0337665
0.370391 0.394839 0.0480524 0.0298441 -0.0376612
0.381394 0.407054 0.0528478 0.0317004 -0.0422845
0.39243 0.418763 0.0582855 0.0357516 -0.0460328
0.403466 0.430471 0.0636314 0.0391843 -0.0501353
0.414502 0.44218 0.0691536 0.0434684 -0.0537841
0.425565 0.453388 0.0733231 0.0448085 -0.0580385
0.436654 0.464094 0.0779373 0.0489122 -0.060678
0.447743 0.4748 0.0818298 0.0517813 -0.0633625
0.458832 0.485506 0.085405 0.055247 -0.0651289
0.46994 0.495726 0.0869529 0.0549483 -0.0673906
0.481067 0.505461 0.0888564 0.0576225 -0.0676395
0.492194 0.515196 0.0896199 0.0586414 -0.0677711
0.503321 0.52493 0.0898401 0.0599939 -0.0668729
0.51446 0.534203 0.0879477 0.0575324 -0.0665194
0.525612 0.543013 0.0865424 0.0578874 -0.0643323
0.536763 0.551823 0.0840649 0.0566492 -0.062111
0.547914 0.560634 0.0812135 0.0556718 -0.0591294