Variables = x, y, ugrad, ux, uy
ZONE I= 100 J= 100 F=point
0.005 0.005 0.037442 -6.43533e-06 -0.037442
0.015 0.005 0.0374678 -1.92927e-05 -0.0374678
0.025 0.005 0.0375192 -3.21101e-05 -0.0375192
0.035 0.005 0.0375963 -4.48607e-05 -0.0375963
0.045 0.005 0.0376988 -5.75171e-05 -0.0376988
0.055 0.005 0.0378265 -7.00515e-05 -0.0378265
0.065 0.005 0.0379792 -8.24354e-05 -0.0379791
0.075 0.005 0.0381565 -9.46393e-05 -0.0381564
0.085 0.005 0.038358 -0.000106633 -0.0383579
0.095 0.005 0.0385833 -0.000118385 -0.0385832
0.105 0.005 0.0388319 -0.000129862 -0.0388317
0.115 0.005 0.0391032 -0.00014103 -0.0391029
0.125 0.005 0.0393965 -0.000151855 -0.0393962
0.135 0.005 0.0397111 -0.0001623 -0.0397107
0.145 0.005 0.0400462 -0.000172326 -0.0400458
0.155 0.005 0.0404009 -0.000181893 -0.0404005
0.165 0.005 0.0407743 -0.000190963 -0.0407738
0.175 0.005 0.0411653 -0.000199491 -0.0411649
0.185 0.005 0.0415729 -0.000207436 -0.0415724
0.195 0.005 0.0419958 -0.000214754 -0.0419952
0.205 0.005 0.0424326 -0.0002214 -0.0424321
0.215 0.005 0.0428821 -0.000227329 -0.0428815
0.225 0.005 0.0433427 -0.000232496 -0.0433421
0.235 0.005 0.0438129 -0.000236858 -0.0438123
0.245 0.005 0.044291 -0.00024037 -0.0442904
0.255 0.005 0.0447753 -0.00024299 -0.0447746
0.265 0.005 0.0452639 -0.000244677 -0.0452632
0.275 0.005 0.0457549 -0.000245394 -0.0457542
0.285 0.005 0.0462464 -0.000245105 -0.0462457
0.295 0.005 0.0467363 -0.000243779 -0.0467356
0.305 0.005 0.0472225 -0.00024139 -0.0472219
0.315 0.005 0.0477028 -0.000237915 -0.0477022
0.325 0.005 0.0481751 -0.000233338 -0.0481745
0.335 0.005 0.0486371 -0.00022765 -0.0486366
0.345 0.005 0.0490867 -0.000220849 -0.0490862
0.355 0.005 0.0495215 -0.000212939 -0.049521
0.365 0.005 0.0499394 -0.000203934 -0.0499389
0.375 0.005 0.0503381 -0.000193855 -0.0503377
0.385 0.005 0.0507156 -0.000182734 -0.0507153
0.395 0.005 0.0510699 -0.000170609 -0.0510696
0.405 0.005 0.0513988 -0.00015753 -0.0513986
0.415 0.005 0.0517007 -0.000143555 -0.0517005
0.425 0.005 0.0519737 -0.00012875 -0.0519736
0.435 0.005 0.0522163 -0.000113191 -0.0522162
0.445 0.005 0.052427 -9.69599e-05 -0.0524269
0.455 0.005 0.0526046 -8.01476e-05 -0.0526045
0.465 0.005 0.052748 -6.28505e-05 -0.0527479
0.475 0.005 0.0528563 -4.51705e-05 -0.0528563
0.485 0.005 0.0529289 -2.72139e-05 -0.0529289
0.495 0.005 0.0529653 -9.08995e-06 -0.0529653
0.505 0.005 0.0529653 9.08995e-06 -0.0529653
0.515 0.005 0.0529289 2.72139e-05 -0.0529289
0.525 0.005 0.0528563 4.51705e-05 -0.0528563
0.535 0.005 0.052748 6.28505e-05 -0.0527479
0.545 0.005 0.0526046 8.01476e-05 -0.0526045
0.555 0.005 0.052427 9.69599e-05 -0.0524269
0.565 0.005 0.0522163 0.000113191 -0.0522162
0.575 0.005 0.0519737 0.00012875 -0.0519736
0.585 0.005 0.0517007 0.000143555 -0.0517005
0.595 0.005 0.0513988 0.00015753 -0.0513986
0.605 0.005 0.0510699 0.000170609 -0.0510696
0.615 0.005 0.0507156 0.000182734 -0.0507153
0.625 0.005 0.0503381 0.000193855 -0.0503377
0.635 0.005 0.0499394 0.000203934 -0.0499389
0.645 0.005 0.0495215 0.000212939 -0.049521
0.655 0.005 0.0490867 0.000220849 -0.0490862
0.665 0.005 0.0486371 0.00022765 -0.0486366
0.675 0.005 0.0481751 0.000233338 -0.0481745
0.685 0.005 0.0477028 0.000237915 -0.0477022
0.695 0.005 0.0472225 0.00024139 -0.0472219
0.705 0.005 0.0467363 0.000243779 -0.0467356
0.715 0.005 0.0462464 0.000245105 -0.0462457
0.725 0.005 0.0457549 0.000245394 -0.0457542
0.735 0.005 0.0452639 0.000244677 -0.0452632
0.745 0.005 0.0447753 0.00024299 -0.0447746
0.755 0.005 0.044291 0.00024037 -0.0442904
0.765 0.005 0.0438129 0.000236858 -0.0438123
0.775 0.005 0.0433427 0.000232496 -0.0433421
0.785 0.005 0.0428821 0.000227329 -0.0428815
0.795 0.005 0.0424326 0.0002214 -0.0424321
0.805 0.005 0.0419958 0.000214754 -0.0419952
0.815 0.005 0.0415729 0.000207436 -0.0415724
0.825 0.005 0.0411653 0.000199491 -0.0411649
0.835 0.005 0.0407743 0.000190963 -0.0407738
0.845 0.005 0.0404009 0.000181893 -0.0404005
0.855 0.005 0.0400462 0.000172326 -0.0400458
0.865 0.005 0.0397111 0.0001623 -0.0397107
0.875 0.005 0.0393965 0.000151855 -0.0393962
0.885 0.005 0.0391032 0.00014103 -0.0391029
0.895 0.005 0.0388319 0.000129862 -0.0388317
0.905 0.005 0.0385833 0.000118385 -0.0385832
0.915 0.005 0.038358 0.000106633 -0.0383579
0.925 0.005 0.0381565 9.46393e-05 -0.0381564
0.935 0.005 0.0379792 8.24354e-05 -0.0379791
0.945 0.005 0.0378265 7.00515e-05 -0.0378265
0.955 0.005 0.0376988 5.75171e-05 -0.0376988
0.965 0.005 0.0375963 4.48607e-05 -0.0375963
0.975 0.005 0.0375192 3.21101e-05 -0.0375192
0.985 0.005 0.0374678 1.92927e-05 -0.0374678
0.995 0.005 0.037442 6.43533e-06 -0.037442
0.005 0.015 0.0374163 -1.93192e-05 -0.0374163
0.015 0.015 0.0374421 -5.79179e-05 -0.0374421
0.025 0.015 0.0374938 -9.63969e-05 -0.0374936
0.035 0.015 0.0375711 -0.000134676 -0.0375709
0.045 0.015 0.037674 -0.000172673 -0.0376736
0.055 0.015 0.0378021 -0.000210305 -0.0378015
0.065 0.015 0.0379553 -0.000247485 -0.0379545
0.075 0.015 0.0381332 -0.000284127 -0.0381322
0.085 0.015 0.0383355 -0.000320139 -0.0383341
0.095 0.015 0.0385615 -0.000355427 -0.0385599
0.105 0.015 0.038811 -0.000389892 -0.038809
0.115 0.015 0.0390832 -0.000423432 -0.0390809
0.125 0.015 0.0393775 -0.000455943 -0.0393749
0.135 0.015 0.0396932 -0.000487313 -0.0396902
0.145 0.015 0.0400295 -0.000517429 -0.0400261
0.155 0.015 0.0403855 -0.000546172 -0.0403818
0.165 0.015 0.0407602 -0.00057342 -0.0407562
0.175 0.015 0.0411527 -0.000599047 -0.0411483
0.185 0.015 0.0415617 -0.000622923 -0.041557
0.195 0.015 0.0419861 -0.000644918 -0.0419811
0.205 0.015 0.0424245 -0.000664897 -0.0424193
0.215 0.015 0.0428757 -0.000682726 -0.0428703
0.225 0.015 0.043338 -0.00069827 -0.0433324
0.235 0.015 0.04381 -0.000711394 -0.0438042
0.245 0.015 0.0442899 -0.000721967 -0.044284
0.255 0.015 0.044776 -0.000729862 -0.04477
0.265 0.015 0.0452664 -0.000734957 -0.0452605
0.275 0.015 0.0457594 -0.000737136 -0.0457534
0.285 0.015 0.0462528 -0.000736295 -0.0462469
0.295 0.015 0.0467446 -0.000732339 -0.0467388
0.305 0.015 0.0472327 -0.000725186 -0.0472271
0.315 0.015 0.0477149 -0.000714771 -0.0477096
0.325 0.015 0.0481891 -0.000701046 -0.048184
0.335 0.015 0.048653 -0.000683981 -0.0486482
0.345 0.015 0.0491044 -0.000663567 -0.0490999
0.355 0.015 0.049541 -0.000639821 -0.0495369
0.365 0.015 0.0499606 -0.000612782 -0.0499569
0.375 0.015 0.050361 -0.000582514 -0.0503577
0.385 0.015 0.0507401 -0.000549109 -0.0507372
0.395 0.015 0.0510959 -0.000512688 -0.0510933
0.405 0.015 0.0514263 -0.000473396 -0.0514241
0.415 0.015 0.0517294 -0.000431408 -0.0517276
0.425 0.015 0.0520036 -0.000386924 -0.0520022
0.435 0.015 0.0522472 -0.00034017 -0.0522461
0.445 0.015 0.0524588 -0.000291396 -0.052458
0.455 0.015 0.0526372 -0.000240873 -0.0526366
0.465 0.015 0.0527812 -0.00018889 -0.0527809
0.475 0.015 0.05289 -0.000135756 -0.0528898
0.485 0.015 0.0529629 -8.17893e-05 -0.0529628
0.495 0.015 0.0529994 -2.73192e-05 -0.0529994
0.505 0.015 0.0529994 2.73192e-05 -0.0529994
0.515 0.015 0.0529629 8.17893e-05 -0.0529628
0.525 0.015 0.05289 0.000135756 -0.0528898
0.535 0.015 0.0527812 0.00018889 -0.0527809
0.545 0.015 0.0526372 0.000240873 -0.0526366
0.555 0.015 0.0524588 0.000291396 -0.052458
0.565 0.015 0.0522472 0.00034017 -0.0522461
0.575 0.015 0.0520036 0.000386924 -0.0520022
0.585 0.015 0.0517294 0.000431408 -0.0517276
0.595 0.015 0.0514263 0.000473396 -0.0514241
0.605 0.015 0.0510959 0.000512688 -0.0510933
0.615 0.015 0.0507401 0.000549109 -0.0507372
0.625 0.015 0.050361 0.000582514 -0.0503577
0.635 0.015 0.0499606 0.000612782 -0.0499569
0.645 0.015 0.049541 0.000639821 -0.0495369
0.655 0.015 0.0491044 0.000663567 -0.0490999
0.665 0.015 0.048653 0.000683981 -0.0486482
0.675 0.015 0.0481891 0.000701046 -0.048184
0.685 0.015 0.0477149 0.000714771 -0.0477096
0.695 0.015 0.0472327 0.000725186 -0.0472271
0.705 0.015 0.0467446 0.000732339 -0.0467388
0.715 0.015 0.0462528 0.000736295 -0.0462469
0.725 0.015 0.0457594 0.000737136 -0.0457534
0.735 0.015 0.0452664 0.000734957 -0.0452605
0.745 0.015 0.044776 0.000729862 -0.04477
0.755 0.015 0.0442899 0.000721967 -0.044284
0.765 0.015 0.04381 0.000711394 -0.0438042
0.775 0.015 0.043338 0.00069827 -0.0433324
0.785 0.015 0.0428757 0.000682726 -0.0428703
0.795 0.015 0.0424245 0.000664897 -0.0424193
0.805 0.015 0.0419861 0.000644918 -0.0419811
0.815 0.015 0.0415617 0.000622923 -0.041557
0.825 0.015 0.0411527 0.000599047 -0.0411483
0.835 0.015 0.0407602 0.00057342 -0.0407562
0.845 0.015 0.0403855 0.000546172 -0.0403818
0.855 0.015 0.0400295 0.000517429 -0.0400261
0.865 0.015 0.0396932 0.000487313 -0.0396902
0.875 0.015 0.0393775 0.000455943 -0.0393749
0.885 0.015 0.0390832 0.000423432 -0.0390809
0.895 0.015 0.038811 0.000389892 -0.038809
0.905 0.015 0.0385615 0.000355427 -0.0385599
0.915 0.015 0.0383355 0.000320139 -0.0383341
0.925 0.015 0.0381332 0.000284127 -0.0381322
0.935 0.015 0.0379553 0.000247485 -0.0379545
0.945 0.015 0.0378021 0.000210305 -0.0378015
0.955 0.015 0.037674 0.000172673 -0.0376736
0.965 0.015 0.0375711 0.000134676 -0.0375709
0.975 0.015 0.0374938 9.63969e-05 -0.0374936
0.985 0.015 0.0374421 5.79179e-05 -0.0374421
0.995 0.015 0.0374163 1.93192e-05 -0.0374163
0.005 0.025 0.0373647 -3.22429e-05 -0.0373647
0.015 0.025 0.0373908 -9.66625e-05 -0.0373906
0.025 0.025 0.0374428 -0.000160884 -0.0374424
0.035 0.025 0.0375206 -0.000224772 -0.03752
0.045 0.025 0.0376242 -0.000288193 -0.0376231
0.055 0.025 0.0377532 -0.000351008 -0.0377516
0.065 0.025 0.0379075 -0.000413073 -0.0379052
0.075 0.025 0.0380866 -0.000474244 -0.0380837
0.085 0.025 0.0382902 -0.000534368 -0.0382865
0.095 0.025 0.0385179 -0.000593289 -0.0385133
0.105 0.025 0.0387691 -0.000650843 -0.0387636
0.115 0.025 0.0390432 -0.00070686 -0.0390368
0.125 0.025 0.0393395 -0.000761166 -0.0393322
0.135 0.025 0.0396574 -0.000813575 -0.0396491
0.145 0.025 0.0399961 -0.000863897 -0.0399868
0.155 0.025 0.0403546 -0.000911935 -0.0403443
0.165 0.025 0.040732 -0.000957485 -0.0407208
0.175 0.025 0.0411273 -0.00100034 -0.0411151
0.185 0.025 0.0415393 -0.00104027 -0.0415262
0.195 0.025 0.0419668 -0.00107708 -0.0419529
0.205 0.025 0.0424084 -0.00111052 -0.0423939
0.215 0.025 0.0428629 -0.00114038 -0.0428477
0.225 0.025 0.0433287 -0.00116643 -0.043313
0.235 0.025 0.0438041 -0.00118844 -0.043788
0.245 0.025 0.0442877 -0.00120619 -0.0442712
0.255 0.025 0.0447775 -0.00121948 -0.0447609
0.265 0.025 0.0452717 -0.00122809 -0.0452551
0.275 0.025 0.0457685 -0.00123183 -0.0457519
0.285 0.025 0.0462658 -0.00123052 -0.0462494
0.295 0.025 0.0467615 -0.00122401 -0.0467455
0.305 0.025 0.0472535 -0.00121215 -0.047238
0.315 0.025 0.0477397 -0.00119484 -0.0477247
0.325 0.025 0.0482177 -0.00117198 -0.0482035
0.335 0.025 0.0486854 -0.00114354 -0.048672
0.345 0.025 0.0491406 -0.00110949 -0.049128
0.355 0.025 0.0495808 -0.00106987 -0.0495693
0.365 0.025 0.050004 -0.00102472 -0.0499935
0.375 0.025 0.0504078 -0.000974174 -0.0503984
0.385 0.025 0.0507902 -0.000918368 -0.0507819
0.395 0.025 0.051149 -0.000857505 -0.0511418
0.405 0.025 0.0514822 -0.00079183 -0.0514761
0.415 0.025 0.051788 -0.000721635 -0.051783
0.425 0.025 0.0520646 -0.000647254 -0.0520606
0.435 0.025 0.0523104 -0.000569066 -0.0523073
0.445 0.025 0.0525239 -0.000487489 -0.0525216
0.455 0.025 0.0527038 -0.000402978 -0.0527023
0.465 0.025 0.0528491 -0.00031602 -0.0528482
0.475 0.025 0.0529589 -0.000227129 -0.0529584
0.485 0.025 0.0530324 -0.00013684 -0.0530322
0.495 0.025 0.0530693 -4.57077e-05 -0.0530693
0.505 0.025 0.0530693 4.57077e-05 -0.0530693
0.515 0.025 0.0530324 0.00013684 -0.0530322
0.525 0.025 0.0529589 0.000227129 -0.0529584
0.535 0.025 0.0528491 0.00031602 -0.0528482
0.545 0.025 0.0527038 0.000402978 -0.0527023
0.555 0.025 0.0525239 0.000487489 -0.0525216
0.565 0.025 0.0523104 0.000569066 -0.0523073
0.575 0.025 0.0520646 0.000647254 -0.0520606
0.585 0.025 0.051788 0.000721635 -0.051783
0.595 0.025 0.0514822 0.00079183 -0.0514761
0.605 0.025 0.051149 0.000857505 -0.0511418
0.615 0.025 0.0507902 0.000918368 -0.0507819
0.625 0.025 0.0504078 0.000974174 -0.0503984
0.635 0.025 0.050004 0.00102472 -0.0499935
0.645 0.025 0.0495808 0.00106987 -0.0495693
0.655 0.025 0.0491406 0.00110949 -0.049128
0.665 0.025 0.0486854 0.00114354 -0.048672
0.675 0.025 0.0482177 0.00117198 -0.0482035
0.685 0.025 0.0477397 0.00119484 -0.0477247
0.695 0.025 0.0472535 0.00121215 -0.047238
0.705 0.025 0.0467615 0.00122401 -0.0467455
0.715 0.025 0.0462658 0.00123052 -0.0462494
0.725 0.025 0.0457685 0.00123183 -0.0457519
0.735 0.025 0.0452717 0.00122809 -0.0452551
0.745 0.025 0.0447775 0.00121948 -0.0447609
0.755 0.025 0.0442877 0.00120619 -0.0442712
0.765 0.025 0.0438041 0.00118844 -0.043788
0.775 0.025 0.0433287 0.00116643 -0.043313
0.785 0.025 0.0428629 0.00114038 -0.0428477
0.795 0.025 0.0424084 0.00111052 -0.0423939
0.805 0.025 0.0419668 0.00107708 -0.0419529
0.815 0.025 0.0415393 0.00104027 -0.0415262
0.825 0.025 0.0411273 0.00100034 -0.0411151
0.835 0.025 0.040732 0.000957485 -0.0407208
0.845 0.025 0.0403546 0.000911935 -0.0403443
0.855 0.025 0.0399961 0.000863897 -0.0399868
0.865 0.025 0.0396574 0.000813575 -0.0396491
0.875 0.025 0.0393395 0.000761166 -0.0393322
0.885 0.025 0.0390432 0.00070686 -0.0390368
0.895 0.025 0.0387691 0.000650843 -0.0387636
0.905 0.025 0.0385179 0.000593289 -0.0385133
0.915 0.025 0.0382902 0.000534368 -0.0382865
0.925 0.025 0.0380866 0.000474244 -0.0380837
0.935 0.025 0.0379075 0.000413073 -0.0379052
0.945 0.025 0.0377532 0.000351008 -0.0377516
0.955 0.025 0.0376242 0.000288193 -0.0376231
0.965 0.025 0.0375206 0.000224772 -0.03752
0.975 0.025 0.0374428 0.000160884 -0.0374424
0.985 0.025 0.0373908 9.66625e-05 -0.0373906
0.995 0.025 0.0373647 3.22429e-05 -0.0373647
0.005 0.035 0.0372873 -4.52324e-05 -0.0372873
0.015 0.035 0.0373136 -0.000135605 -0.0373134
0.025 0.035 0.0373661 -0.000225702 -0.0373654
0.035 0.035 0.0374448 -0.000315336 -0.0374435
0.045 0.035 0.0375494 -0.000404319 -0.0375472
0.055 0.035 0.0376798 -0.000492458 -0.0376765
0.065 0.035 0.0378356 -0.000579555 -0.0378312
0.075 0.035 0.0380166 -0.000665405 -0.0380108
0.085 0.035 0.0382223 -0.000749798 -0.0382149
0.095 0.035 0.0384523 -0.000832514 -0.0384433
0.105 0.035 0.0387061 -0.000913326 -0.0386953
0.115 0.035 0.038983 -0.000991996 -0.0389704
0.125 0.035 0.0392825 -0.00106828 -0.0392679
0.135 0.035 0.0396037 -0.00114191 -0.0395872
0.145 0.035 0.0399459 -0.00121264 -0.0399275
0.155 0.035 0.0403082 -0.00128017 -0.0402879
0.165 0.035 0.0406897 -0.00134423 -0.0406675
0.175 0.035 0.0410892 -0.00140452 -0.0410651
0.185 0.035 0.0415056 -0.00146073 -0.0414799
0.195 0.035 0.0419377 -0.00151256 -0.0419104
0.205 0.035 0.0423842 -0.00155969 -0.0423555
0.215 0.035 0.0428437 -0.0016018 -0.0428137
0.225 0.035 0.0433146 -0.00163857 -0.0432836
0.235 0.035 0.0437954 -0.00166968 -0.0437636
0.245 0.035 0.0442844 -0.00169482 -0.044252
0.255 0.035 0.0447798 -0.00171369 -0.044747
0.265 0.035 0.0452798 -0.001726 -0.0452469
0.275 0.035 0.0457823 -0.00173147 -0.0457496
0.285 0.035 0.0462854 -0.00172984 -0.0462531
0.295 0.035 0.046787 -0.0017209 -0.0467554
0.305 0.035 0.047285 -0.00170443 -0.0472542
0.315 0.035 0.047777 -0.00168029 -0.0477474
0.325 0.035 0.0482609 -0.00164835 -0.0482327
0.335 0.035 0.0487344 -0.00160854 -0.0487078
0.345 0.035 0.0491952 -0.00156083 -0.0491704
0.355 0.035 0.049641 -0.00150525 -0.0496181
0.365 0.035 0.0500695 -0.00144189 -0.0500487
0.375 0.035 0.0504785 -0.0013709 -0.0504598
0.385 0.035 0.0508657 -0.00129249 -0.0508493
0.395 0.035 0.0512292 -0.00120695 -0.051215
0.405 0.035 0.0515668 -0.0011146 -0.0515547
0.415 0.035 0.0518766 -0.00101588 -0.0518667
0.425 0.035 0.0521569 -0.000911231 -0.0521489
0.435 0.035 0.0524059 -0.000801206 -0.0523998
0.445 0.035 0.0526222 -0.000686389 -0.0526178
0.455 0.035 0.0528046 -0.000567423 -0.0528015
0.465 0.035 0.0529518 -0.000444996 -0.05295
0.475 0.035 0.0530631 -0.000319835 -0.0530621
0.485 0.035 0.0531376 -0.000192698 -0.0531373
0.495 0.035 0.053175 -6.43658e-05 -0.053175
0.505 0.035 0.053175 6.43658e-05 -0.053175
0.515 0.035 0.0531376 0.000192698 -0.0531373
0.525 0.035 0.0530631 0.000319835 -0.0530621
0.535 0.035 0.0529518 0.000444996 -0.05295
0.545 0.035 0.0528046 0.000567423 -0.0528015
0.555 0.035 0.0526222 0.000686389 -0.0526178
0.565 0.035 0.0524059 0.000801206 -0.0523998
0.575 0.035 0.0521569 0.000911231 -0.0521489
0.585 0.035 0.0518766 0.00101588 -0.0518667
0.595 0.035 0.0515668 0.0011146 -0.0515547
0.605 0.035 0.0512292 0.00120695 -0.051215
0.615 0.035 0.0508657 0.00129249 -0.0508493
0.625 0.035 0.0504785 0.0013709 -0.0504598
0.635 0.035 0.0500695 0.00144189 -0.0500487
0.645 0.035 0.049641 0.00150525 -0.0496181
0.655 0.035 0.0491952 0.00156083 -0.0491704
0.665 0.035 0.0487344 0.00160854 -0.0487078
0.675 0.035 0.0482609 0.00164835 -0.0482327
0.685 0.035 0.047777 0.00168029 -0.0477474
0.695 0.035 0.047285 0.00170443 -0.0472542
0.705 0.035 0.046787 0.0017209 -0.0467554
0.715 0.035 0.0462854 0.00172984 -0.0462531
0.725 0.035 0.0457823 0.00173147 -0.0457496
0.735 0.035 0.0452798 0.001726 -0.0452469
0.745 0.035 0.0447798 0.00171369 -0.044747
0.755 0.035 0.0442844 0.00169482 -0.044252
0.765 0.035 0.0437954 0.00166968 -0.0437636
0.775 0.035 0.0433146 0.00163857 -0.0432836
0.785 0.035 0.0428437 0.0016018 -0.0428137
0.795 0.035 0.0423842 0.00155969 -0.0423555
0.805 0.035 0.0419377 0.00151256 -0.0419104
0.815 0.035 0.0415056 0.00146073 -0.0414799
0.825 0.035 0.0410892 0.00140452 -0.0410651
0.835 0.035 0.0406897 0.00134423 -0.0406675
0.845 0.035 0.0403082 0.00128017 -0.0402879
0.855 0.035 0.0399459 0.00121264 -0.0399275
0.865 0.035 0.0396037 0.00114191 -0.0395872
0.875 0.035 0.0392825 0.00106828 -0.0392679
0.885 0.035 0.038983 0.000991996 -0.0389704
0.895 0.035 0.0387061 0.000913326 -0.0386953
0.905 0.035 0.0384523 0.000832514 -0.0384433
0.915 0.035 0.0382223 0.000749798 -0.0382149
0.925 0.035 0.0380166 0.000665405 -0.0380108
0.935 0.035 0.0378356 0.000579555 -0.0378312
0.945 0.035 0.0376798 0.000492458 -0.0376765
0.955 0.035 0.0375494 0.000404319 -0.0375472
0.965 0.035 0.0374448 0.000315336 -0.0374435
0.975 0.035 0.0373661 0.000225702 -0.0373654
0.985 0.035 0.0373136 0.000135605 -0.0373134
0.995 0.035 0.0372873 4.52324e-05 -0.0372873
0.005 0.045 0.0371838 -5.83138e-05 -0.0371838
0.015 0.045 0.0372105 -0.000174824 -0.0372101
0.025 0.045 0.0372637 -0.000290982 -0.0372626
0.035 0.045 0.0373434 -0.00040655 -0.0373412
0.045 0.045 0.0374495 -0.000521288 -0.0374458
0.055 0.045 0.0375816 -0.000634949 -0.0375762
0.065 0.045 0.0377395 -0.00074728 -0.0377321
0.075 0.045 0.037923 -0.000858021 -0.0379133
0.085 0.045 0.0381315 -0.000966901 -0.0381192
0.095 0.045 0.0383646 -0.00107364 -0.0383496
0.105 0.045 0.0386219 -0.00117794 -0.0386039
0.115 0.045 0.0389026 -0.00127951 -0.0388816
0.125 0.045 0.0392062 -0.00137802 -0.039182
0.135 0.045 0.0395319 -0.00147315 -0.0395044
0.145 0.045 0.0398789 -0.00156455 -0.0398482
0.155 0.045 0.0402462 -0.00165187 -0.0402123
0.165 0.045 0.040633 -0.00173473 -0.040596
0.175 0.045 0.0410382 -0.00181275 -0.0409981
0.185 0.045 0.0414605 -0.00188554 -0.0414176
0.195 0.045 0.0418988 -0.00195271 -0.0418533
0.205 0.045 0.0423518 -0.00201383 -0.0423039
0.215 0.045 0.042818 -0.0020685 -0.042768
0.225 0.045 0.0432958 -0.00211629 -0.0432441
0.235 0.045 0.0437838 -0.00215681 -0.0437306
0.245 0.045 0.0442801 -0.00218963 -0.0442259
0.255 0.045 0.044783 -0.00221436 -0.0447282
0.265 0.045 0.0452905 -0.00223063 -0.0452356
0.275 0.045 0.0458008 -0.00223806 -0.0457461
0.285 0.045 0.0463118 -0.00223633 -0.0462577
0.295 0.045 0.0468212 -0.00222513 -0.0467683
0.305 0.045 0.0473271 -0.00220421 -0.0472757
0.315 0.045 0.047827 -0.00217335 -0.0477776
0.325 0.045 0.0483187 -0.00213238 -0.0482716
0.335 0.045 0.0487999 -0.00208121 -0.0487555
0.345 0.045 0.0492683 -0.00201979 -0.0492269
0.355 0.045 0.0497215 -0.00194816 -0.0496833
0.365 0.045 0.0501572 -0.00186643 -0.0501225
0.375 0.045 0.0505731 -0.00177479 -0.050542
0.385 0.045 0.050967 -0.0016735 -0.0509395
0.395 0.045 0.0513367 -0.00156293 -0.0513129
0.405 0.045 0.0516801 -0.00144352 -0.05166
0.415 0.045 0.0519953 -0.00131579 -0.0519787
0.425 0.045 0.0522805 -0.00118037 -0.0522672
0.435 0.045 0.0525339 -0.00103793 -0.0525237
0.445 0.045 0.0527541 -0.000889259 -0.0527466
0.455 0.045 0.0529397 -0.000735177 -0.0529346
0.465 0.045 0.0530895 -0.000576585 -0.0530864
0.475 0.045 0.0532028 -0.000414428 -0.0532011
0.485 0.045 0.0532786 -0.000249696 -0.053278
0.495 0.045 0.0533167 -8.34057e-05 -0.0533166
0.505 0.045 0.0533167 8.34057e-05 -0.0533166
0.515 0.045 0.0532786 0.000249696 -0.053278
0.525 0.045 0.0532028 0.000414428 -0.0532011
0.535 0.045 0.0530895 0.000576585 -0.0530864
0.545 0.045 0.0529397 0.000735177 -0.0529346
0.555 0.045 0.0527541 0.000889259 -0.0527466
0.565 0.045 0.0525339 0.00103793 -0.0525237
0.575 0.045 0.0522805 0.00118037 -0.0522672
0.585 0.045 0.0519953 0.00131579 -0.0519787
0.595 0.045 0.0516801 0.00144352 -0.05166
0.605 0.045 0.0513367 0.00156293 -0.0513129
0.615 0.045 0.050967 0.0016735 -0.0509395
0.625 0.045 0.0505731 0.00177479 -0.050542
0.635 0.045 0.0501572 0.00186643 -0.0501225
0.645 0.045 0.0497215 0.00194816 -0.0496833
0.655 0.045 0.0492683 0.00201979 -0.0492269
0.665 0.045 0.0487999 0.00208121 -0.0487555
0.675 0.045 0.0483187 0.00213238 -0.0482716
0.685 0.045 0.047827 0.00217335 -0.0477776
0.695 0.045 0.0473271 0.00220421 -0.0472757
0.705 0.045 0.0468212 0.00222513 -0.0467683
0.715 0.045 0.0463118 0.00223633 -0.0462577
0.725 0.045 0.0458008 0.00223806 -0.0457461
0.735 0.045 0.0452905 0.00223063 -0.0452356
0.745 0.045 0.044783 0.00221436 -0.0447282
0.755 0.045 0.0442801 0.00218963 -0.0442259
0.765 0.045 0.0437838 0.00215681 -0.0437306
0.775 0.045 0.0432958 0.00211629 -0.0432441
0.785 0.045 0.042818 0.0020685 -0.042768
0.795 0.045 0.0423518 0.00201383 -0.0423039
0.805 0.045 0.0418988 0.00195271 -0.0418533
0.815 0.045 0.0414605 0.00188554 -0.0414176
0.825 0.045 0.0410382 0.00181275 -0.0409981
0.835 0.045 0.040633 0.00173473 -0.040596
0.845 0.045 0.0402462 0.00165187 -0.0402123
0.855 0.045 0.0398789 0.00156455 -0.0398482
0.865 0.045 0.0395319 0.00147315 -0.0395044
0.875 0.045 0.0392062 0.00137802 -0.039182
0.885 0.045 0.0389026 0.00127951 -0.0388816
0.895 0.045 0.0386219 0.00117794 -0.0386039
0.905 0.045 0.0383646 0.00107364 -0.0383496
0.915 0.045 0.0381315 0.000966901 -0.0381192
0.925 0.045 0.037923 0.000858021 -0.0379133
0.935 0.045 0.0377395 0.00074728 -0.0377321
0.945 0.045 0.0375816 0.000634949 -0.0375762
0.955 0.045 0.0374495 0.000521288 -0.0374458
0.965 0.045 0.0373434 0.00040655 -0.0373412
0.975 0.045 0.0372637 0.000290982 -0.0372626
0.985 0.045 0.0372105 0.000174824 -0.0372101
0.995 0.045 0.0371838 5.83138e-05 -0.0371838
0.005 0.055 0.0370541 -7.15121e-05 -0.037054
0.015 0.055 0.0370812 -0.000214394 -0.0370805
0.025 0.055 0.0371353 -0.000356851 -0.0371336
0.035 0.055 0.0372163 -0.000498594 -0.037213
0.045 0.055 0.0373241 -0.000639332 -0.0373187
0.055 0.055 0.0374585 -0.000778768 -0.0374504
0.065 0.055 0.0376191 -0.000916594 -0.0376079
0.075 0.055 0.0378056 -0.00105249 -0.0377909
0.085 0.055 0.0380176 -0.00118614 -0.0379991
0.095 0.055 0.0382547 -0.00131719 -0.038232
0.105 0.055 0.0385163 -0.00144529 -0.0384891
0.115 0.055 0.0388018 -0.00157007 -0.03877
0.125 0.055 0.0391105 -0.00169114 -0.0390739
0.135 0.055 0.0394418 -0.0018081 -0.0394003
0.145 0.055 0.0397947 -0.00192053 -0.0397484
0.155 0.055 0.0401684 -0.00202799 -0.0401172
0.165 0.055 0.0405619 -0.00213002 -0.040506
0.175 0.055 0.0409742 -0.00222617 -0.0409137
0.185 0.055 0.041404 -0.00231594 -0.0413391
0.195 0.055 0.0418501 -0.00239883 -0.0417812
0.205 0.055 0.0423111 -0.00247435 -0.0422387
0.215 0.055 0.0427857 -0.00254198 -0.0427101
0.225 0.055 0.0432722 -0.00260121 -0.0431939
0.235 0.055 0.0437691 -0.00265151 -0.0436887
0.245 0.055 0.0442746 -0.00269239 -0.0441926
0.255 0.055 0.0447868 -0.00272335 -0.044704
0.265 0.055 0.045304 -0.00274392 -0.0452208
0.275 0.055 0.045824 -0.00275363 -0.0457412
0.285 0.055 0.0463447 -0.00275207 -0.0462629
0.295 0.055 0.0468641 -0.00273886 -0.046784
0.305 0.055 0.0473798 -0.00271367 -0.0473021
0.315 0.055 0.0478897 -0.00267623 -0.0478148
0.325 0.055 0.0483912 -0.00262631 -0.0483199
0.335 0.055 0.0488822 -0.0025638 -0.0488149
0.345 0.055 0.0493601 -0.00248863 -0.0492973
0.355 0.055 0.0498226 -0.00240083 -0.0497647
0.365 0.055 0.0502673 -0.00230053 -0.0502147
0.375 0.055 0.050692 -0.00218795 -0.0506447
0.385 0.055 0.0510941 -0.00206343 -0.0510525
0.395 0.055 0.0514717 -0.0019274 -0.0514356
0.405 0.055 0.0518225 -0.0017804 -0.0517919
0.415 0.055 0.0521445 -0.00162308 -0.0521192
0.425 0.055 0.0524358 -0.00145621 -0.0524156
0.435 0.055 0.0526947 -0.00128063 -0.0526792
0.445 0.055 0.0529197 -0.00109729 -0.0529083
0.455 0.055 0.0531093 -0.000907234 -0.0531016
0.465 0.055 0.0532625 -0.000711571 -0.0532578
0.475 0.055 0.0533782 -0.000511476 -0.0533758
0.485 0.055 0.0534558 -0.000308178 -0.0534549
0.495 0.055 0.0534947 -0.000102942 -0.0534946
0.505 0.055 0.0534947 0.000102942 -0.0534946
0.515 0.055 0.0534558 0.000308178 -0.0534549
0.525 0.055 0.0533782 0.000511476 -0.0533758
0.535 0.055 0.0532625 0.000711571 -0.0532578
0.545 0.055 0.0531093 0.000907234 -0.0531016
0.555 0.055 0.0529197 0.00109729 -0.0529083
0.565 0.055 0.0526947 0.00128063 -0.0526792
0.575 0.055 0.0524358 0.00145621 -0.0524156
0.585 0.055 0.0521445 0.00162308 -0.0521192
0.595 0.055 0.0518225 0.0017804 -0.0517919
0.605 0.055 0.0514717 0.0019274 -0.0514356
0.615 0.055 0.0510941 0.00206343 -0.0510525
0.625 0.055 0.050692 0.00218795 -0.0506447
0.635 0.055 0.0502673 0.00230053 -0.0502147
0.645 0.055 0.0498226 0.00240083 -0.0497647
0.655 0.055 0.0493601 0.00248863 -0.0492973
0.665 0.055 0.0488822 0.0025638 -0.0488149
0.675 0.055 0.0483912 0.00262631 -0.0483199
0.685 0.055 0.0478897 0.00267623 -0.0478148
0.695 0.055 0.0473798 0.00271367 -0.0473021
0.705 0.055 0.0468641 0.00273886 -0.046784
0.715 0.055 0.0463447 0.00275207 -0.0462629
0.725 0.055 0.045824 0.00275363 -0.0457412
0.735 0.055 0.045304 0.00274392 -0.0452208
0.745 0.055 0.0447868 0.00272335 -0.044704
0.755 0.055 0.0442746 0.00269239 -0.0441926
0.765 0.055 0.0437691 0.00265151 -0.0436887
0.775 0.055 0.0432722 0.00260121 -0.0431939
0.785 0.055 0.0427857 0.00254198 -0.0427101
0.795 0.055 0.0423111 0.00247435 -0.0422387
0.805 0.055 0.0418501 0.00239883 -0.0417812
0.815 0.055 0.041404 0.00231594 -0.0413391
0.825 0.055 0.0409742 0.00222617 -0.0409137
0.835 0.055 0.0405619 0.00213002 -0.040506
0.845 0.055 0.0401684 0.00202799 -0.0401172
0.855 0.055 0.0397947 0.00192053 -0.0397484
0.865 0.055 0.0394418 0.0018081 -0.0394003
0.875 0.055 0.0391105 0.00169114 -0.0390739
0.885 0.055 0.0388018 0.00157007 -0.03877
0.895 0.055 0.0385163 0.00144529 -0.0384891
0.905 0.055 0.0382547 0.00131719 -0.038232
0.915 0.055 0.0380176 0.00118614 -0.0379991
0.925 0.055 0.0378056 0.00105249 -0.0377909
0.935 0.055 0.0376191 0.000916594 -0.0376079
0.945 0.055 0.0374585 0.000778768 -0.0374504
0.955 0.055 0.0373241 0.000639332 -0.0373187
0.965 0.055 0.0372163 0.000498594 -0.037213
0.975 0.055 0.0371353 0.000356851 -0.0371336
0.985 0.055 0.0370812 0.000214394 -0.0370805
0.995 0.055 0.0370541 7.15121e-05 -0.037054
0.005 0.065 0.0368978 -8.48519e-05 -0.0368977
0.015 0.065 0.0369254 -0.00025439 -0.0369245
0.025 0.065 0.0369806 -0.000423431 -0.0369782
0.035 0.065 0.0370632 -0.00059164 -0.0370585
0.045 0.065 0.0371732 -0.000758677 -0.0371654
0.055 0.065 0.0373102 -0.000924193 -0.0372987
0.065 0.065 0.037474 -0.00108783 -0.0374582
0.075 0.065 0.0376642 -0.00124922 -0.0376434
0.085 0.065 0.0378804 -0.00140797 -0.0378542
0.095 0.065 0.0381222 -0.00156368 -0.0380901
0.105 0.065 0.038389 -0.00171595 -0.0383507
0.115 0.065 0.0386803 -0.00186432 -0.0386353
0.125 0.065 0.0389952 -0.00200835 -0.0389435
0.135 0.065 0.0393332 -0.00214756 -0.0392745
0.145 0.065 0.0396933 -0.00228145 -0.0396277
0.155 0.065 0.0400747 -0.0024095 -0.0400022
0.165 0.065 0.0404763 -0.00253117 -0.040397
0.175 0.065 0.040897 -0.00264591 -0.0408113
0.185 0.065 0.0413357 -0.00275313 -0.0412439
0.195 0.065 0.0417912 -0.00285225 -0.0416937
0.205 0.065 0.042262 -0.00294267 -0.0421594
0.215 0.065 0.0427466 -0.00302376 -0.0426396
0.225 0.065 0.0432436 -0.0030949 -0.0431327
0.235 0.065 0.0437513 -0.00315549 -0.0436373
0.245 0.065 0.0442678 -0.0032049 -0.0441516
0.255 0.065 0.0447914 -0.00324254 -0.0446739
0.265 0.065 0.0453201 -0.00326782 -0.0452021
0.275 0.065 0.0458518 -0.0032802 -0.0457343
0.285 0.065 0.0463844 -0.00327917 -0.0462683
0.295 0.065 0.0469156 -0.00326425 -0.046802
0.305 0.065 0.0474433 -0.00323504 -0.0473329
0.315 0.065 0.0479651 -0.00319119 -0.0478588
0.325 0.065 0.0484785 -0.00313244 -0.0483772
0.335 0.065 0.0489812 -0.00305862 -0.0488856
0.345 0.065 0.0494706 -0.00296964 -0.0493814
0.355 0.065 0.0499444 -0.00286552 -0.0498621
0.365 0.065 0.0504001 -0.00274641 -0.0503252
0.375 0.065 0.0508352 -0.00261257 -0.050768
0.385 0.065 0.0512474 -0.00246437 -0.0511881
0.395 0.065 0.0516344 -0.00230234 -0.051583
0.405 0.065 0.051994 -0.00212712 -0.0519505
0.415 0.065 0.0523242 -0.00193948 -0.0522883
0.425 0.065 0.052623 -0.00174033 -0.0525942
0.435 0.065 0.0528886 -0.00153069 -0.0528664
0.445 0.065 0.0531194 -0.0013117 -0.0531032
0.455 0.065 0.0533139 -0.00108461 -0.0533029
0.465 0.065 0.0534711 -0.00085076 -0.0534643
0.475 0.065 0.0535898 -0.00061156 -0.0535863
0.485 0.065 0.0536694 -0.000368496 -0.0536681
0.495 0.065 0.0537093 -0.000123093 -0.0537091
0.505 0.065 0.0537093 0.000123093 -0.0537091
0.515 0.065 0.0536694 0.000368496 -0.0536681
0.525 0.065 0.0535898 0.00061156 -0.0535863
0.535 0.065 0.0534711 0.00085076 -0.0534643
0.545 0.065 0.0533139 0.00108461 -0.0533029
0.555 0.065 0.0531194 0.0013117 -0.0531032
0.565 0.065 0.0528886 0.00153069 -0.0528664
0.575 0.065 0.052623 0.00174033 -0.0525942
0.585 0.065 0.0523242 0.00193948 -0.0522883
0.595 0.065 0.051994 0.00212712 -0.0519505
0.605 0.065 0.0516344 0.00230234 -0.051583
0.615 0.065 0.0512474 0.00246437 -0.0511881
0.625 0.065 0.0508352 0.00261257 -0.050768
0.635 0.065 0.0504001 0.00274641 -0.0503252
0.645 0.065 0.0499444 0.00286552 -0.0498621
0.655 0.065 0.0494706 0.00296964 -0.0493814
0.665 0.065 0.0489812 0.00305862 -0.0488856
0.675 0.065 0.0484785 0.00313244 -0.0483772
0.685 0.065 0.0479651 0.00319119 -0.0478588