Variables = x, y, u
ZONE I= 100 J= 100 F=point
0.005 0.005 -0.000187242
0.015 0.005 -0.000187371
0.025 0.005 -0.000187628
0.035 0.005 -0.000188013
0.045 0.005 -0.000188525
0.055 0.005 -0.000189164
0.065 0.005 -0.000189926
0.075 0.005 -0.000190812
0.085 0.005 -0.000191819
0.095 0.005 -0.000192945
0.105 0.005 -0.000194187
0.115 0.005 -0.000195542
0.125 0.005 -0.000197007
0.135 0.005 -0.000198579
0.145 0.005 -0.000200253
0.155 0.005 -0.000202026
0.165 0.005 -0.000203891
0.175 0.005 -0.000205845
0.185 0.005 -0.000207881
0.195 0.005 -0.000209994
0.205 0.005 -0.000212176
0.215 0.005 -0.000214422
0.225 0.005 -0.000216723
0.235 0.005 -0.000219072
0.245 0.005 -0.00022146
0.255 0.005 -0.000223879
0.265 0.005 -0.00022632
0.275 0.005 -0.000228773
0.285 0.005 -0.000231228
0.295 0.005 -0.000233675
0.305 0.005 -0.000236103
0.315 0.005 -0.000238502
0.325 0.005 -0.000240862
0.335 0.005 -0.000243169
0.345 0.005 -0.000245415
0.355 0.005 -0.000247586
0.365 0.005 -0.000249673
0.375 0.005 -0.000251665
0.385 0.005 -0.00025355
0.395 0.005 -0.00025532
0.405 0.005 -0.000256963
0.415 0.005 -0.00025847
0.425 0.005 -0.000259834
0.435 0.005 -0.000261045
0.445 0.005 -0.000262098
0.455 0.005 -0.000262984
0.465 0.005 -0.0002637
0.475 0.005 -0.000264241
0.485 0.005 -0.000264604
0.495 0.005 -0.000264786
0.505 0.005 -0.000264786
0.515 0.005 -0.000264604
0.525 0.005 -0.000264241
0.535 0.005 -0.0002637
0.545 0.005 -0.000262984
0.555 0.005 -0.000262098
0.565 0.005 -0.000261045
0.575 0.005 -0.000259834
0.585 0.005 -0.00025847
0.595 0.005 -0.000256963
0.605 0.005 -0.00025532
0.615 0.005 -0.00025355
0.625 0.005 -0.000251665
0.635 0.005 -0.000249673
0.645 0.005 -0.000247586
0.655 0.005 -0.000245415
0.665 0.005 -0.000243169
0.675 0.005 -0.000240862
0.685 0.005 -0.000238502
0.695 0.005 -0.000236103
0.705 0.005 -0.000233675
0.715 0.005 -0.000231228
0.725 0.005 -0.000228773
0.735 0.005 -0.00022632
0.745 0.005 -0.000223879
0.755 0.005 -0.00022146
0.765 0.005 -0.000219072
0.775 0.005 -0.000216723
0.785 0.005 -0.000214422
0.795 0.005 -0.000212176
0.805 0.005 -0.000209994
0.815 0.005 -0.000207881
0.825 0.005 -0.000205845
0.835 0.005 -0.000203891
0.845 0.005 -0.000202026
0.855 0.005 -0.000200253
0.865 0.005 -0.000198579
0.875 0.005 -0.000197007
0.885 0.005 -0.000195542
0.895 0.005 -0.000194187
0.905 0.005 -0.000192945
0.915 0.005 -0.000191819
0.925 0.005 -0.000190812
0.935 0.005 -0.000189926
0.945 0.005 -0.000189164
0.955 0.005 -0.000188525
0.965 0.005 -0.000188013
0.975 0.005 -0.000187628
0.985 0.005 -0.000187371
0.995 0.005 -0.000187242
0.005 0.015 -0.000561598
0.015 0.015 -0.000561985
0.025 0.015 -0.000562757
0.035 0.015 -0.000563913
0.045 0.015 -0.00056545
0.055 0.015 -0.000567366
0.065 0.015 -0.000569656
0.075 0.015 -0.000572316
0.085 0.015 -0.000575339
0.095 0.015 -0.000578718
0.105 0.015 -0.000582447
0.115 0.015 -0.000586516
0.125 0.015 -0.000590916
0.135 0.015 -0.000595635
0.145 0.015 -0.000600662
0.155 0.015 -0.000605984
0.165 0.015 -0.000611586
0.175 0.015 -0.000617452
0.185 0.015 -0.000623567
0.195 0.015 -0.000629911
0.205 0.015 -0.000636465
0.215 0.015 -0.000643209
0.225 0.015 -0.000650119
0.235 0.015 -0.000657174
0.245 0.015 -0.000664347
0.255 0.015 -0.000671613
0.265 0.015 -0.000678945
0.275 0.015 -0.000686312
0.285 0.015 -0.000693687
0.295 0.015 -0.000701038
0.305 0.015 -0.000708334
0.315 0.015 -0.000715542
0.325 0.015 -0.000722629
0.335 0.015 -0.000729563
0.345 0.015 -0.000736309
0.355 0.015 -0.000742834
0.365 0.015 -0.000749105
0.375 0.015 -0.00075509
0.385 0.015 -0.000760756
0.395 0.015 -0.000766072
0.405 0.015 -0.00077101
0.415 0.015 -0.00077554
0.425 0.015 -0.000779638
0.435 0.015 -0.000783279
0.445 0.015 -0.000786441
0.455 0.015 -0.000789106
0.465 0.015 -0.000791259
0.475 0.015 -0.000792884
0.485 0.015 -0.000793974
0.495 0.015 -0.00079452
0.505 0.015 -0.00079452
0.515 0.015 -0.000793974
0.525 0.015 -0.000792884
0.535 0.015 -0.000791259
0.545 0.015 -0.000789106
0.555 0.015 -0.000786441
0.565 0.015 -0.000783279
0.575 0.015 -0.000779638
0.585 0.015 -0.00077554
0.595 0.015 -0.00077101
0.605 0.015 -0.000766072
0.615 0.015 -0.000760756
0.625 0.015 -0.00075509
0.635 0.015 -0.000749105
0.645 0.015 -0.000742834
0.655 0.015 -0.000736309
0.665 0.015 -0.000729563
0.675 0.015 -0.000722629
0.685 0.015 -0.000715542
0.695 0.015 -0.000708334
0.705 0.015 -0.000701038
0.715 0.015 -0.000693687
0.725 0.015 -0.000686312
0.735 0.015 -0.000678945
0.745 0.015 -0.000671613
0.755 0.015 -0.000664347
0.765 0.015 -0.000657174
0.775 0.015 -0.000650119
0.785 0.015 -0.000643209
0.795 0.015 -0.000636465
0.805 0.015 -0.000629911
0.815 0.015 -0.000623567
0.825 0.015 -0.000617452
0.835 0.015 -0.000611586
0.845 0.015 -0.000605984
0.855 0.015 -0.000600662
0.865 0.015 -0.000595635
0.875 0.015 -0.000590916
0.885 0.015 -0.000586516
0.895 0.015 -0.000582447
0.905 0.015 -0.000578718
0.915 0.015 -0.000575339
0.925 0.015 -0.000572316
0.935 0.015 -0.000569656
0.945 0.015 -0.000567366
0.955 0.015 -0.00056545
0.965 0.015 -0.000563913
0.975 0.015 -0.000562757
0.985 0.015 -0.000561985
0.995 0.015 -0.000561598
0.005 0.025 -0.000935568
0.015 0.025 -0.000936213
0.025 0.025 -0.000937501
0.035 0.025 -0.00093943
0.045 0.025 -0.000941997
0.055 0.025 -0.000945194
0.065 0.025 -0.000949017
0.075 0.025 -0.000953456
0.085 0.025 -0.000958502
0.095 0.025 -0.000964143
0.105 0.025 -0.000970367
0.115 0.025 -0.00097716
0.125 0.025 -0.000984505
0.135 0.025 -0.000992383
0.145 0.025 -0.00100078
0.155 0.025 -0.00100966
0.165 0.025 -0.00101901
0.175 0.025 -0.00102881
0.185 0.025 -0.00103902
0.195 0.025 -0.00104962
0.205 0.025 -0.00106056
0.215 0.025 -0.00107183
0.225 0.025 -0.00108337
0.235 0.025 -0.00109516
0.245 0.025 -0.00110714
0.255 0.025 -0.00111928
0.265 0.025 -0.00113153
0.275 0.025 -0.00114384
0.285 0.025 -0.00115617
0.295 0.025 -0.00116845
0.305 0.025 -0.00118065
0.315 0.025 -0.00119269
0.325 0.025 -0.00120454
0.335 0.025 -0.00121613
0.345 0.025 -0.00122741
0.355 0.025 -0.00123832
0.365 0.025 -0.00124881
0.375 0.025 -0.00125882
0.385 0.025 -0.00126829
0.395 0.025 -0.00127719
0.405 0.025 -0.00128544
0.415 0.025 -0.00129302
0.425 0.025 -0.00129988
0.435 0.025 -0.00130597
0.445 0.025 -0.00131126
0.455 0.025 -0.00131572
0.465 0.025 -0.00131932
0.475 0.025 -0.00132204
0.485 0.025 -0.00132386
0.495 0.025 -0.00132477
0.505 0.025 -0.00132477
0.515 0.025 -0.00132386
0.525 0.025 -0.00132204
0.535 0.025 -0.00131932
0.545 0.025 -0.00131572
0.555 0.025 -0.00131126
0.565 0.025 -0.00130597
0.575 0.025 -0.00129988
0.585 0.025 -0.00129302
0.595 0.025 -0.00128544
0.605 0.025 -0.00127719
0.615 0.025 -0.00126829
0.625 0.025 -0.00125882
0.635 0.025 -0.00124881
0.645 0.025 -0.00123832
0.655 0.025 -0.00122741
0.665 0.025 -0.00121613
0.675 0.025 -0.00120454
0.685 0.025 -0.00119269
0.695 0.025 -0.00118065
0.705 0.025 -0.00116845
0.715 0.025 -0.00115617
0.725 0.025 -0.00114384
0.735 0.025 -0.00113153
0.745 0.025 -0.00111928
0.755 0.025 -0.00110714
0.765 0.025 -0.00109516
0.775 0.025 -0.00108337
0.785 0.025 -0.00107183
0.795 0.025 -0.00106056
0.805 0.025 -0.00104962
0.815 0.025 -0.00103902
0.825 0.025 -0.00102881
0.835 0.025 -0.00101901
0.845 0.025 -0.00100966
0.855 0.025 -0.00100078
0.865 0.025 -0.000992383
0.875 0.025 -0.000984505
0.885 0.025 -0.00097716
0.895 0.025 -0.000970367
0.905 0.025 -0.000964143
0.915 0.025 -0.000958502
0.925 0.025 -0.000953456
0.935 0.025 -0.000949017
0.945 0.025 -0.000945194
0.955 0.025 -0.000941997
0.965 0.025 -0.00093943
0.975 0.025 -0.000937501
0.985 0.025 -0.000936213
0.995 0.025 -0.000935568
0.005 0.035 -0.00130889
0.015 0.035 -0.0013098
0.025 0.035 -0.0013116
0.035 0.035 -0.00131431
0.045 0.035 -0.00131791
0.055 0.035 -0.0013224
0.065 0.035 -0.00132776
0.075 0.035 -0.00133399
0.085 0.035 -0.00134107
0.095 0.035 -0.00134898
0.105 0.035 -0.00135772
0.115 0.035 -0.00136725
0.125 0.035 -0.00137756
0.135 0.035 -0.00138862
0.145 0.035 -0.0014004
0.155 0.035 -0.00141287
0.165 0.035 -0.001426
0.175 0.035 -0.00143975
0.185 0.035 -0.00145409
0.195 0.035 -0.00146897
0.205 0.035 -0.00148434
0.215 0.035 -0.00150016
0.225 0.035 -0.00151638
0.235 0.035 -0.00153293
0.245 0.035 -0.00154977
0.255 0.035 -0.00156683
0.265 0.035 -0.00158405
0.275 0.035 -0.00160135
0.285 0.035 -0.00161868
0.295 0.035 -0.00163595
0.305 0.035 -0.00165309
0.315 0.035 -0.00167004
0.325 0.035 -0.0016867
0.335 0.035 -0.001703
0.345 0.035 -0.00171887
0.355 0.035 -0.00173422
0.365 0.035 -0.00174897
0.375 0.035 -0.00176306
0.385 0.035 -0.00177639
0.395 0.035 -0.00178891
0.405 0.035 -0.00180053
0.415 0.035 -0.0018112
0.425 0.035 -0.00182085
0.435 0.035 -0.00182942
0.445 0.035 -0.00183687
0.455 0.035 -0.00184315
0.465 0.035 -0.00184822
0.475 0.035 -0.00185205
0.485 0.035 -0.00185462
0.495 0.035 -0.00185591
0.505 0.035 -0.00185591
0.515 0.035 -0.00185462
0.525 0.035 -0.00185205
0.535 0.035 -0.00184822
0.545 0.035 -0.00184315
0.555 0.035 -0.00183687
0.565 0.035 -0.00182942
0.575 0.035 -0.00182085
0.585 0.035 -0.0018112
0.595 0.035 -0.00180053
0.605 0.035 -0.00178891
0.615 0.035 -0.00177639
0.625 0.035 -0.00176306
0.635 0.035 -0.00174897
0.645 0.035 -0.00173422
0.655 0.035 -0.00171887
0.665 0.035 -0.001703
0.675 0.035 -0.0016867
0.685 0.035 -0.00167004
0.695 0.035 -0.00165309
0.705 0.035 -0.00163595
0.715 0.035 -0.00161868
0.725 0.035 -0.00160135
0.735 0.035 -0.00158405
0.745 0.035 -0.00156683
0.755 0.035 -0.00154977
0.765 0.035 -0.00153293
0.775 0.035 -0.00151638
0.785 0.035 -0.00150016
0.795 0.035 -0.00148434
0.805 0.035 -0.00146897
0.815 0.035 -0.00145409
0.825 0.035 -0.00143975
0.835 0.035 -0.001426
0.845 0.035 -0.00141287
0.855 0.035 -0.0014004
0.865 0.035 -0.00138862
0.875 0.035 -0.00137756
0.885 0.035 -0.00136725
0.895 0.035 -0.00135772
0.905 0.035 -0.00134898
0.915 0.035 -0.00134107
0.925 0.035 -0.00133399
0.935 0.035 -0.00132776
0.945 0.035 -0.0013224
0.955 0.035 -0.00131791
0.965 0.035 -0.00131431
0.975 0.035 -0.0013116
0.985 0.035 -0.0013098
0.995 0.035 -0.00130889
0.005 0.045 -0.00168131
0.015 0.045 -0.00168248
0.025 0.045 -0.00168481
0.035 0.045 -0.0016883
0.045 0.045 -0.00169294
0.055 0.045 -0.00169873
0.065 0.045 -0.00170564
0.075 0.045 -0.00171367
0.085 0.045 -0.0017228
0.095 0.045 -0.00173301
0.105 0.045 -0.00174427
0.115 0.045 -0.00175657
0.125 0.045 -0.00176986
0.135 0.045 -0.00178413
0.145 0.045 -0.00179933
0.155 0.045 -0.00181542
0.165 0.045 -0.00183236
0.175 0.045 -0.00185011
0.185 0.045 -0.00186862
0.195 0.045 -0.00188782
0.205 0.045 -0.00190767
0.215 0.045 -0.0019281
0.225 0.045 -0.00194904
0.235 0.045 -0.00197043
0.245 0.045 -0.00199218
0.255 0.045 -0.00201422
0.265 0.045 -0.00203647
0.275 0.045 -0.00205883
0.285 0.045 -0.00208123
0.295 0.045 -0.00210356
0.305 0.045 -0.00212573
0.315 0.045 -0.00214764
0.325 0.045 -0.0021692
0.335 0.045 -0.00219029
0.345 0.045 -0.00221082
0.355 0.045 -0.00223069
0.365 0.045 -0.00224978
0.375 0.045 -0.00226802
0.385 0.045 -0.00228528
0.395 0.045 -0.00230149
0.405 0.045 -0.00231654
0.415 0.045 -0.00233036
0.425 0.045 -0.00234285
0.435 0.045 -0.00235396
0.445 0.045 -0.00236361
0.455 0.045 -0.00237175
0.465 0.045 -0.00237832
0.475 0.045 -0.00238328
0.485 0.045 -0.00238661
0.495 0.045 -0.00238827
0.505 0.045 -0.00238827
0.515 0.045 -0.00238661
0.525 0.045 -0.00238328
0.535 0.045 -0.00237832
0.545 0.045 -0.00237175
0.555 0.045 -0.00236361
0.565 0.045 -0.00235396
0.575 0.045 -0.00234285
0.585 0.045 -0.00233036
0.595 0.045 -0.00231654
0.605 0.045 -0.00230149
0.615 0.045 -0.00228528
0.625 0.045 -0.00226802
0.635 0.045 -0.00224978
0.645 0.045 -0.00223069
0.655 0.045 -0.00221082
0.665 0.045 -0.00219029
0.675 0.045 -0.0021692
0.685 0.045 -0.00214764
0.695 0.045 -0.00212573
0.705 0.045 -0.00210356
0.715 0.045 -0.00208123
0.725 0.045 -0.00205883
0.735 0.045 -0.00203647
0.745 0.045 -0.00201422
0.755 0.045 -0.00199218
0.765 0.045 -0.00197043
0.775 0.045 -0.00194904
0.785 0.045 -0.0019281
0.795 0.045 -0.00190767
0.805 0.045 -0.00188782
0.815 0.045 -0.00186862
0.825 0.045 -0.00185011
0.835 0.045 -0.00183236
0.845 0.045 -0.00181542
0.855 0.045 -0.00179933
0.865 0.045 -0.00178413
0.875 0.045 -0.00176986
0.885 0.045 -0.00175657
0.895 0.045 -0.00174427
0.905 0.045 -0.00173301
0.915 0.045 -0.0017228
0.925 0.045 -0.00171367
0.935 0.045 -0.00170564
0.945 0.045 -0.00169873
0.955 0.045 -0.00169294
0.965 0.045 -0.0016883
0.975 0.045 -0.00168481
0.985 0.045 -0.00168248
0.995 0.045 -0.00168131
0.005 0.055 -0.00205257
0.015 0.055 -0.002054
0.025 0.055 -0.00205686
0.035 0.055 -0.00206114
0.045 0.055 -0.00206683
0.055 0.055 -0.00207392
0.065 0.055 -0.0020824
0.075 0.055 -0.00209225
0.085 0.055 -0.00210345
0.095 0.055 -0.00211598
0.105 0.055 -0.0021298
0.115 0.055 -0.00214488
0.125 0.055 -0.0021612
0.135 0.055 -0.00217871
0.145 0.055 -0.00219736
0.155 0.055 -0.00221712
0.165 0.055 -0.00223792
0.175 0.055 -0.00225972
0.185 0.055 -0.00228244
0.195 0.055 -0.00230604
0.205 0.055 -0.00233042
0.215 0.055 -0.00235552
0.225 0.055 -0.00238126
0.235 0.055 -0.00240755
0.245 0.055 -0.00243429
0.255 0.055 -0.00246139
0.265 0.055 -0.00248876
0.275 0.055 -0.00251627
0.285 0.055 -0.00254383
0.295 0.055 -0.00257131
0.305 0.055 -0.00259861
0.315 0.055 -0.00262559
0.325 0.055 -0.00265213
0.335 0.055 -0.00267811
0.345 0.055 -0.00270341
0.355 0.055 -0.00272789
0.365 0.055 -0.00275142
0.375 0.055 -0.0027739
0.385 0.055 -0.00279518
0.395 0.055 -0.00281517
0.405 0.055 -0.00283373
0.415 0.055 -0.00285077
0.425 0.055 -0.00286619
0.435 0.055 -0.0028799
0.445 0.055 -0.00289181
0.455 0.055 -0.00290184
0.465 0.055 -0.00290995
0.475 0.055 -0.00291607
0.485 0.055 -0.00292018
0.495 0.055 -0.00292224
0.505 0.055 -0.00292224
0.515 0.055 -0.00292018
0.525 0.055 -0.00291607
0.535 0.055 -0.00290995
0.545 0.055 -0.00290184
0.555 0.055 -0.00289181
0.565 0.055 -0.0028799
0.575 0.055 -0.00286619
0.585 0.055 -0.00285077
0.595 0.055 -0.00283373
0.605 0.055 -0.00281517
0.615 0.055 -0.00279518
0.625 0.055 -0.0027739
0.635 0.055 -0.00275142
0.645 0.055 -0.00272789
0.655 0.055 -0.00270341
0.665 0.055 -0.00267811
0.675 0.055 -0.00265213
0.685 0.055 -0.00262559
0.695 0.055 -0.00259861
0.705 0.055 -0.00257131
0.715 0.055 -0.00254383
0.725 0.055 -0.00251627
0.735 0.055 -0.00248876
0.745 0.055 -0.00246139
0.755 0.055 -0.00243429
0.765 0.055 -0.00240755
0.775 0.055 -0.00238126
0.785 0.055 -0.00235552
0.795 0.055 -0.00233042
0.805 0.055 -0.00230604
0.815 0.055 -0.00228244
0.825 0.055 -0.00225972
0.835 0.055 -0.00223792
0.845 0.055 -0.00221712
0.855 0.055 -0.00219736
0.865 0.055 -0.00217871
0.875 0.055 -0.0021612
0.885 0.055 -0.00214488
0.895 0.055 -0.0021298
0.905 0.055 -0.00211598
0.915 0.055 -0.00210345
0.925 0.055 -0.00209225
0.935 0.055 -0.0020824
0.945 0.055 -0.00207392
0.955 0.055 -0.00206683
0.965 0.055 -0.00206114
0.975 0.055 -0.00205686
0.985 0.055 -0.002054
0.995 0.055 -0.00205257
0.005 0.065 -0.00242239
0.015 0.065 -0.00242409
0.025 0.065 -0.00242748
0.035 0.065 -0.00243256
0.045 0.065 -0.00243931
0.055 0.065 -0.00244773
0.065 0.065 -0.0024578
0.075 0.065 -0.00246949
0.085 0.065 -0.00248278
0.095 0.065 -0.00249765
0.105 0.065 -0.00251406
0.115 0.065 -0.00253197
0.125 0.065 -0.00255134
0.135 0.065 -0.00257213
0.145 0.065 -0.00259429
0.155 0.065 -0.00261776
0.165 0.065 -0.00264248
0.175 0.065 -0.00266839
0.185 0.065 -0.0026954
0.195 0.065 -0.00272345
0.205 0.065 -0.00275245
0.215 0.065 -0.0027823
0.225 0.065 -0.00281292
0.235 0.065 -0.0028442
0.245 0.065 -0.00287603
0.255 0.065 -0.0029083
0.265 0.065 -0.00294088
0.275 0.065 -0.00297366
0.285 0.065 -0.00300649
0.295 0.065 -0.00303924
0.305 0.065 -0.00307177
0.315 0.065 -0.00310394
0.325 0.065 -0.0031356
0.335 0.065 -0.00316659
0.345 0.065 -0.00319677
0.355 0.065 -0.00322598
0.365 0.065 -0.00325408
0.375 0.065 -0.00328091
0.385 0.065 -0.00330633
0.395 0.065 -0.0033302
0.405 0.065 -0.00335238
0.415 0.065 -0.00337274
0.425 0.065 -0.00339117
0.435 0.065 -0.00340755
0.445 0.065 -0.00342178
0.455 0.065 -0.00343378
0.465 0.065 -0.00344347
0.475 0.065 -0.00345079
0.485 0.065 -0.0034557
0.495 0.065 -0.00345816
0.505 0.065 -0.00345816
0.515 0.065 -0.0034557
0.525 0.065 -0.00345079
0.535 0.065 -0.00344347
0.545 0.065 -0.00343378
0.555 0.065 -0.00342178
0.565 0.065 -0.00340755
0.575 0.065 -0.00339117
0.585 0.065 -0.00337274
0.595 0.065 -0.00335238
0.605 0.065 -0.0033302
0.615 0.065 -0.00330633
0.625 0.065 -0.00328091
0.635 0.065 -0.00325408
0.645 0.065 -0.00322598
0.655 0.065 -0.00319677
0.665 0.065 -0.00316659
0.675 0.065 -0.0031356
0.685 0.065 -0.00310394
0.695 0.065 -0.00307177
0.705 0.065 -0.00303924
0.715 0.065 -0.00300649
0.725 0.065 -0.00297366
0.735 0.065 -0.00294088
0.745 0.065 -0.0029083
0.755 0.065 -0.00287603
0.765 0.065 -0.0028442
0.775 0.065 -0.00281292
0.785 0.065 -0.0027823
0.795 0.065 -0.00275245
0.805 0.065 -0.00272345
0.815 0.065 -0.0026954
0.825 0.065 -0.00266839
0.835 0.065 -0.00264248
0.845 0.065 -0.00261776
0.855 0.065 -0.00259429
0.865 0.065 -0.00257213
0.875 0.065 -0.00255134
0.885 0.065 -0.00253197
0.895 0.065 -0.00251406
0.905 0.065 -0.00249765
0.915 0.065 -0.00248278
0.925 0.065 -0.00246949
0.935 0.065 -0.0024578
0.945 0.065 -0.00244773
0.955 0.065 -0.00243931
0.965 0.065 -0.00243256
0.975 0.065 -0.00242748
0.985 0.065 -0.00242409
0.995 0.065 -0.00242239
0.005 0.075 -0.00279052
0.015 0.075 -0.00279249
0.025 0.075 -0.00279642
0.035 0.075 -0.00280231
0.045 0.075 -0.00281014
0.055 0.075 -0.0028199
0.065 0.075 -0.00283157
0.075 0.075 -0.00284512
0.085 0.075 -0.00286054
0.095 0.075 -0.00287778
0.105 0.075 -0.00289681
0.115 0.075 -0.00291759
0.125 0.075 -0.00294007
0.135 0.075 -0.0029642
0.145 0.075 -0.00298991
0.155 0.075 -0.00301716
0.165 0.075 -0.00304586
0.175 0.075 -0.00307594
0.185 0.075 -0.00310732
0.195 0.075 -0.00313991
0.205 0.075 -0.00317361
0.215 0.075 -0.00320831
0.225 0.075 -0.00324391
0.235 0.075 -0.00328029
0.245 0.075 -0.00331732
0.255 0.075 -0.00335487
0.265 0.075 -0.0033928
0.275 0.075 -0.00343096
0.285 0.075 -0.0034692
0.295 0.075 -0.00350735
0.305 0.075 -0.00354527
0.315 0.075 -0.00358276
0.325 0.075 -0.00361968
0.335 0.075 -0.00365583
0.345 0.075 -0.00369104
0.355 0.075 -0.00372513
0.365 0.075 -0.00375793
0.375 0.075 -0.00378926
0.385 0.075 -0.00381894
0.395 0.075 -0.00384683
0.405 0.075 -0.00387274
0.415 0.075 -0.00389654
0.425 0.075 -0.00391808
0.435 0.075 -0.00393723
0.445 0.075 -0.00395387
0.455 0.075 -0.0039679
0.465 0.075 -0.00397924
0.475 0.075 -0.0039878
0.485 0.075 -0.00399354
0.495 0.075 -0.00399642
0.505 0.075 -0.00399642
0.515 0.075 -0.00399354
0.525 0.075 -0.0039878
0.535 0.075 -0.00397924
0.545 0.075 -0.0039679
0.555 0.075 -0.00395387
0.565 0.075 -0.00393723
0.575 0.075 -0.00391808
0.585 0.075 -0.00389654
0.595 0.075 -0.00387274
0.605 0.075 -0.00384683
0.615 0.075 -0.00381894
0.625 0.075 -0.00378926
0.635 0.075 -0.00375793
0.645 0.075 -0.00372513
0.655 0.075 -0.00369104
0.665 0.075 -0.00365583
0.675 0.075 -0.00361968
0.685 0.075 -0.00358276
0.695 0.075 -0.00354527
0.705 0.075 -0.00350735
0.715 0.075 -0.0034692
0.725 0.075 -0.00343096
0.735 0.075 -0.0033928
0.745 0.075 -0.00335487
0.755 0.075 -0.00331732
0.765 0.075 -0.00328029
0.775 0.075 -0.00324391
0.785 0.075 -0.00320831
0.795 0.075 -0.00317361
0.805 0.075 -0.00313991
0.815 0.075 -0.00310732
0.825 0.075 -0.00307594
0.835 0.075 -0.00304586
0.845 0.075 -0.00301716
0.855 0.075 -0.00298991
0.865 0.075 -0.0029642
0.875 0.075 -0.00294007
0.885 0.075 -0.00291759
0.895 0.075 -0.00289681
0.905 0.075 -0.00287778
0.915 0.075 -0.00286054
0.925 0.075 -0.00284512
0.935 0.075 -0.00283157
0.945 0.075 -0.0028199
0.955 0.075 -0.00281014
0.965 0.075 -0.00280231
0.975 0.075 -0.00279642
0.985 0.075 -0.00279249
0.995 0.075 -0.00279052
0.005 0.085 -0.00315668
0.015 0.085 -0.00315893
0.025 0.085 -0.0031634
0.035 0.085 -0.00317011
0.045 0.085 -0.00317903
0.055 0.085 -0.00319015
0.065 0.085 -0.00320345
0.075 0.085 -0.0032189
0.085 0.085 -0.00323647
0.095 0.085 -0.00325612
0.105 0.085 -0.00327782
0.115 0.085 -0.00330151
0.125 0.085 -0.00332715
0.135 0.085 -0.00335467
0.145 0.085 -0.00338401
0.155 0.085 -0.0034151
0.165 0.085 -0.00344786
0.175 0.085 -0.0034822
0.185 0.085 -0.00351803
0.195 0.085 -0.00355525
0.205 0.085 -0.00359375
0.215 0.085 -0.00363342
0.225 0.085 -0.00367412
0.235 0.085 -0.00371572
0.245 0.085 -0.00375808
0.255 0.085 -0.00380104
0.265 0.085 -0.00384446
0.275 0.085 -0.00388815
0.285 0.085 -0.00393195
0.295 0.085 -0.00397567
0.305 0.085 -0.00401913
0.315 0.085 -0.00406212
0.325 0.085 -0.00410446
0.335 0.085 -0.00414593
0.345 0.085 -0.00418635
0.355 0.085 -0.00422549
0.365 0.085 -0.00426315
0.375 0.085 -0.00429914
0.385 0.085 -0.00433326
0.395 0.085 -0.0043653
0.405 0.085 -0.00439509
0.415 0.085 -0.00442246
0.425 0.085 -0.00444723
0.435 0.085 -0.00446926
0.445 0.085 -0.00448841
0.455 0.085 -0.00450455
0.465 0.085 -0.0045176
0.475 0.085 -0.00452746
0.485 0.085 -0.00453406
0.495 0.085 -0.00453738
0.505 0.085 -0.00453738
0.515 0.085 -0.00453406
0.525 0.085 -0.00452746
0.535 0.085 -0.0045176
0.545 0.085 -0.00450455
0.555 0.085 -0.00448841
0.565 0.085 -0.00446926
0.575 0.085 -0.00444723
0.585 0.085 -0.00442246
0.595 0.085 -0.00439509
0.605 0.085 -0.0043653
0.615 0.085 -0.00433326
0.625 0.085 -0.00429914
0.635 0.085 -0.00426315
0.645 0.085 -0.00422549
0.655 0.085 -0.00418635
0.665 0.085 -0.00414593
0.675 0.085 -0.00410446
0.685 0.085 -0.00406212
0.695 0.085 -0.00401913
0.705 0.085 -0.00397567
0.715 0.085 -0.00393195
0.725 0.085 -0.00388815
0.735 0.085 -0.00384446
0.745 0.085 -0.00380104
0.755 0.085 -0.00375808
0.765 0.085 -0.00371572
0.775 0.085 -0.00367412
0.785 0.085 -0.00363342
0.795 0.085 -0.00359375
0.805 0.085 -0.00355525
0.815 0.085 -0.00351803
0.825 0.085 -0.0034822
0.835 0.085 -0.00344786
0.845 0.085 -0.0034151
0.855 0.085 -0.00338401
0.865 0.085 -0.00335467
0.875 0.085 -0.00332715
0.885 0.085 -0.00330151
0.895 0.085 -0.00327782
0.905 0.085 -0.00325612
0.915 0.085 -0.00323647
0.925 0.085 -0.0032189
0.935 0.085 -0.00320345
0.945 0.085 -0.00319015
0.955 0.085 -0.00317903
0.965 0.085 -0.00317011
0.975 0.085 -0.0031634
0.985 0.085 -0.00315893
0.995 0.085 -0.00315668
0.005 0.095 -0.00352061
0.015 0.095 -0.00352313
0.025 0.095 -0.00352816
0.035 0.095 -0.0035357
0.045 0.095 -0.00354573
0.055 0.095 -0.00355823
0.065 0.095 -0.00357318
0.075 0.095 -0.00359055
0.085 0.095 -0.00361031
0.095 0.095 -0.00363242
0.105 0.095 -0.00365683
0.115 0.095 -0.00368349
0.125 0.095 -0.00371234
0.135 0.095 -0.00374331
0.145 0.095 -0.00377635
0.155 0.095 -0.00381136
0.165 0.095 -0.00384826
0.175 0.095 -0.00388696
0.185 0.095 -0.00392734
0.195 0.095 -0.00396931
0.205 0.095 -0.00401273
0.215 0.095 -0.00405747
0.225 0.095 -0.0041034
0.235 0.095 -0.00415037
0.245 0.095 -0.0041982
0.255 0.095 -0.00424674
0.265 0.095 -0.0042958
0.275 0.095 -0.0043452
0.285 0.095 -0.00439474
0.295 0.095 -0.0044442
0.305 0.095 -0.00449339
0.315 0.095 -0.00454207
0.325 0.095 -0.00459002
0.335 0.095 -0.00463702
0.345 0.095 -0.00468282
0.355 0.095 -0.0047272
0.365 0.095 -0.00476993
0.375 0.095 -0.00481076
0.385 0.095 -0.00484948
0.395 0.095 -0.00488587
0.405 0.095 -0.0049197
0.415 0.095 -0.00495078
0.425 0.095 -0.00497893
0.435 0.095 -0.00500396
0.445 0.095 -0.00502573
0.455 0.095 -0.00504409
0.465 0.095 -0.00505892
0.475 0.095 -0.00507013
0.485 0.095 -0.00507764
0.495 0.095 -0.00508141
0.505 0.095 -0.00508141
0.515 0.095 -0.00507764
0.525 0.095 -0.00507013
0.535 0.095 -0.00505892
0.545 0.095 -0.00504409
0.555 0.095 -0.00502573
0.565 0.095 -0.00500396
0.575 0.095 -0.00497893
0.585 0.095 -0.00495078
0.595 0.095 -0.0049197
0.605 0.095 -0.00488587
0.615 0.095 -0.00484948
0.625 0.095 -0.00481076
0.635 0.095 -0.00476993
0.645 0.095 -0.0047272
0.655 0.095 -0.00468282
0.665 0.095 -0.00463702
0.675 0.095 -0.00459002
0.685 0.095 -0.00454207
0.695 0.095 -0.00449339
0.705 0.095 -0.0044442
0.715 0.095 -0.00439474
0.725 0.095 -0.0043452
0.735 0.095 -0.0042958
0.745 0.095 -0.00424674
0.755 0.095 -0.0041982
0.765 0.095 -0.00415037
0.775 0.095 -0.0041034
0.785 0.095 -0.00405747
0.795 0.095 -0.00401273
0.805 0.095 -0.00396931
0.815 0.095 -0.00392734
0.825 0.095 -0.00388696
0.835 0.095 -0.00384826
0.845 0.095 -0.00381136
0.855 0.095 -0.00377635
0.865 0.095 -0.00374331
0.875 0.095 -0.00371234
0.885 0.095 -0.00368349
0.895 0.095 -0.00365683
0.905 0.095 -0.00363242
0.915 0.095 -0.00361031
0.925 0.095 -0.00359055
0.935 0.095 -0.00357318
0.945 0.095 -0.00355823
0.955 0.095 -0.00354573
0.965 0.095 -0.0035357
0.975 0.095 -0.00352816
0.985 0.095 -0.00352313
0.995 0.095 -0.00352061
0.005 0.105 -0.00388201
0.015 0.105 -0.00388481
0.025 0.105 -0.00389041
0.035 0.105 -0.00389879
0.045 0.105 -0.00390995
0.055 0.105 -0.00392386
0.065 0.105 -0.00394049
0.075 0.105 -0.00395982
0.085 0.105 -0.00398181
0.095 0.105 -0.00400642
0.105 0.105 -0.00403359
0.115 0.105 -0.00406327
0.125 0.105 -0.0040954
0.135 0.105 -0.00412991
0.145 0.105 -0.00416671
0.155 0.105 -0.00420573
0.165 0.105 -0.00424687
0.175 0.105 -0.00429002
0.185 0.105 -0.00433507
0.195 0.105 -0.0043819
0.205 0.105 -0.00443036
0.215 0.105 -0.00448033
0.225 0.105 -0.00453163
0.235 0.105 -0.00458411
0.245 0.105 -0.00463759
0.255 0.105 -0.00469188
0.265 0.105 -0.00474677
0.275 0.105 -0.00480206
0.285 0.105 -0.00485753
0.295 0.105 -0.00491294
0.305 0.105 -0.00496806
0.315 0.105 -0.00502264
0.325 0.105 -0.00507643
0.335 0.105 -0.00512916
0.345 0.105 -0.00518058
0.355 0.105 -0.00523043
0.365 0.105 -0.00527842
0.375 0.105 -0.00532432
0.385 0.105 -0.00536784
0.395 0.105 -0.00540876
0.405 0.105 -0.00544682
0.415 0.105 -0.0054818
0.425 0.105 -0.00551348
0.435 0.105 -0.00554166
0.445 0.105 -0.00556617
0.455 0.105 -0.00558684
0.465 0.105 -0.00560355
0.475 0.105 -0.00561618
0.485 0.105 -0.00562464
0.495 0.105 -0.00562889
0.505 0.105 -0.00562889
0.515 0.105 -0.00562464
0.525 0.105 -0.00561618
0.535 0.105 -0.00560355
0.545 0.105 -0.00558684
0.555 0.105 -0.00556617
0.565 0.105 -0.00554166
0.575 0.105 -0.00551348
0.585 0.105 -0.0054818
0.595 0.105 -0.00544682
0.605 0.105 -0.00540876
0.615 0.105 -0.00536784
0.625 0.105 -0.00532432
0.635 0.105 -0.00527842
0.645 0.105 -0.00523043
0.655 0.105 -0.00518058
0.665 0.105 -0.00512916
0.675 0.105 -0.00507643
0.685 0.105 -0.00502264
0.695 0.105 -0.00496806
0.705 0.105 -0.00491294
0.715 0.105 -0.00485753
0.725 0.105 -0.00480206
0.735 0.105 -0.00474677
0.745 0.105 -0.00469188
0.755 0.105 -0.00463759
0.765 0.105 -0.00458411
0.775 0.105 -0.00453163
0.785 0.105 -0.00448033
0.795 0.105 -0.00443036
0.805 0.105 -0.0043819
0.815 0.105 -0.00433507
0.825 0.105 -0.00429002
0.835 0.105 -0.00424687
0.845 0.105 -0.00420573
0.855 0.105 -0.00416671
0.865 0.105 -0.00412991
0.875 0.105 -0.0040954
0.885 0.105 -0.00406327
0.895 0.105 -0.00403359
0.905 0.105 -0.00400642
0.915 0.105 -0.00398181
0.925 0.105 -0.00395982
0.935 0.105 -0.00394049
0.945 0.105 -0.00392386
0.955 0.105 -0.00390995
0.965 0.105 -0.00389879
0.975 0.105 -0.00389041
0.985 0.105 -0.00388481
0.995 0.105 -0.00388201
0.005 0.115 -0.00424061
0.015 0.115 -0.0042437
0.025 0.115 -0.00424987
0.035 0.115 -0.00425912
0.045 0.115 -0.00427142
0.055 0.115 -0.00428676
0.065 0.115 -0.00430511
0.075 0.115 -0.00432643
0.085 0.115 -0.00435069
0.095 0.115 -0.00437785
0.105 0.115 -0.00440783
0.115 0.115 -0.0044406
0.125 0.115 -0.00447608
0.135 0.115 -0.00451419
0.145 0.115 -0.00455486
0.155 0.115 -0.00459798
0.165 0.115 -0.00464345
0.175 0.115 -0.00469117
0.185 0.115 -0.00474101
0.195 0.115 -0.00479283
0.205 0.115 -0.00484648
0.215 0.115 -0.00490182
0.225 0.115 -0.00495866
0.235 0.115 -0.00501683
0.245 0.115 -0.00507613
0.255 0.115 -0.00513635
0.265 0.115 -0.00519728
0.275 0.115 -0.00525867
0.285 0.115 -0.00532029
0.295 0.115 -0.00538188
0.305 0.115 -0.00544317
0.315 0.115 -0.00550389
0.325 0.115 -0.00556375
0.335 0.115 -0.00562247
0.345 0.115 -0.00567974
0.355 0.115 -0.00573529
0.365 0.115 -0.0057888
0.375 0.115 -0.00583998
0.385 0.115 -0.00588855
0.395 0.115 -0.00593422
0.405 0.115 -0.00597672
0.415 0.115 -0.00601579
0.425 0.115 -0.00605118
0.435 0.115 -0.00608267
0.445 0.115 -0.00611006
0.455 0.115 -0.00613318
0.465 0.115 -0.00615186
0.475 0.115 -0.00616598
0.485 0.115 -0.00617544
0.495 0.115 -0.00618019
0.505 0.115 -0.00618019
0.515 0.115 -0.00617544
0.525 0.115 -0.00616598
0.535 0.115 -0.00615186
0.545 0.115 -0.00613318
0.555 0.115 -0.00611006
0.565 0.115 -0.00608267
0.575 0.115 -0.00605118
0.585 0.115 -0.00601579
0.595 0.115 -0.00597672
0.605 0.115 -0.00593422
0.615 0.115 -0.00588855
0.625 0.115 -0.00583998
0.635 0.115 -0.0057888
0.645 0.115 -0.00573529
0.655 0.115 -0.00567974
0.665 0.115 -0.00562247
0.675 0.115 -0.00556375
0.685 0.115 -0.00550389
0.695 0.115 -0.00544317
0.705 0.115 -0.00538188
0.715 0.115 -0.00532029
0.725 0.115 -0.00525867
0.735 0.115 -0.00519728
0.745 0.115 -0.00513635
0.755 0.115 -0.00507613
0.765 0.115 -0.00501683
0.775 0.115 -0.00495866
0.785 0.115 -0.00490182
0.795 0.115 -0.00484648
0.805 0.115 -0.00479283
0.815 0.115 -0.00474101
0.825 0.115 -0.00469117
0.835 0.115 -0.00464345
0.845 0.115 -0.00459798
0.855 0.115 -0.00455486
0.865 0.115 -0.00451419
0.875 0.115 -0.00447608
0.885 0.115 -0.0044406
0.895 0.115 -0.00440783
0.905 0.115 -0.00437785
0.915 0.115 -0.00435069
0.925 0.115 -0.00432643
0.935 0.115 -0.00430511
0.945 0.115 -0.00428676
0.955 0.115 -0.00427142
0.965 0.115 -0.00425912
0.975 0.115 -0.00424987
0.985 0.115 -0.0042437
0.995 0.115 -0.00424061
0.005 0.125 -0.00459613
0.015 0.125 -0.00459951
0.025 0.125 -0.00460627
0.035 0.125 -0.00461639
0.045 0.125 -0.00462986
0.055 0.125 -0.00464666
0.065 0.125 -0.00466675
0.075 0.125 -0.00469011
0.085 0.125 -0.00471669
0.095 0.125 -0.00474644
0.105 0.125 -0.0047793
0.115 0.125 -0.00481522
0.125 0.125 -0.00485412
0.135 0.125 -0.00489593
0.145 0.125 -0.00494054
0.155 0.125 -0.00498786
0.165 0.125 -0.00503779
0.175 0.125 -0.00509019
0.185 0.125 -0.00514495
0.195 0.125 -0.0052019
0.205 0.125 -0.0052609
0.215 0.125 -0.00532177
0.225 0.125 -0.00538432
0.235 0.125 -0.00544837
0.245 0.125 -0.00551369
0.255 0.125 -0.00558006
0.265 0.125 -0.00564724
0.275 0.125 -0.00571496
0.285 0.125 -0.00578297
0.295 0.125 -0.00585098
0.305 0.125 -0.0059187
0.315 0.125 -0.00598582
0.325 0.125 -0.00605202
0.335 0.125 -0.00611699
0.345 0.125 -0.0061804
0.355 0.125 -0.00624192
0.365 0.125 -0.00630121
0.375 0.125 -0.00635795
0.385 0.125 -0.00641181
0.395 0.125 -0.00646248
0.405 0.125 -0.00650964
0.415 0.125 -0.00655301
0.425 0.125 -0.00659232
0.435 0.125 -0.0066273