Variables = x, y, u
ZONE I= 80 J= 80 F=point
0.139243 0.0117781 -1.97557e-05
0.149176 0.0295483 -1.99142e-05
0.159108 0.0473185 -2.02474e-05
0.169041 0.0650887 -2.07812e-05
0.179162 0.0823779 -2.15851e-05
0.189471 0.0991862 -2.25365e-05
0.199781 0.115995 -2.37068e-05
0.21009 0.132803 -2.51444e-05
0.220483 0.149234 -2.69408e-05
0.230961 0.165288 -2.89562e-05
0.241438 0.181341 -3.12926e-05
0.251916 0.197395 -3.40191e-05
0.262465 0.212992 -3.72468e-05
0.273087 0.228132 -4.08046e-05
0.283708 0.243272 -4.48323e-05
0.29433 0.258412 -4.94149e-05
0.305014 0.273044 -5.46714e-05
0.315761 0.287168 -6.03456e-05
0.326508 0.301292 -6.66002e-05
0.337255 0.315416 -7.34965e-05
0.348055 0.329009 -8.11182e-05
0.358908 0.34207 -8.89987e-05
0.369761 0.355131 -9.72799e-05
0.380615 0.368192 -0.000105932
0.391512 0.380717 -0.000114969
0.402454 0.392706 -0.000123599
0.413395 0.404695 -0.000131941
0.424337 0.416684 -0.000139887
0.435313 0.428148 -0.000147456
0.446323 0.439085 -0.000153623
0.457334 0.450022 -0.000158587
0.468344 0.46096 -0.00016231
0.479379 0.471391 -0.000164989
0.49044 0.481316 -0.000165667
0.5015 0.491242 -0.000164714
0.51256 0.501167 -0.000162289
0.523637 0.510614 -0.000158818
0.53473 0.519582 -0.000153663
0.545824 0.528551 -0.000147276
0.556917 0.537519 -0.000139949
0.568017 0.546041 -0.000132193
0.579125 0.554116 -0.000123676
0.590232 0.562191 -0.000114753
0.60134 0.570266 -0.00010569
0.612446 0.577929 -9.68815e-05
0.623551 0.585181 -8.81677e-05
0.634656 0.592433 -7.971e-05
0.645761 0.599684 -7.16489e-05
0.656857 0.60656 -6.42011e-05
0.667942 0.613061 -5.72537e-05
0.679027 0.619561 -5.08196e-05
0.690113 0.626061 -4.49304e-05
0.701181 0.632222 -3.96654e-05
0.712233 0.638042 -3.49307e-05
0.723285 0.643862 -3.06747e-05
0.734337 0.649683 -2.68774e-05
0.745364 0.655198 -2.35516e-05
0.756367 0.660407 -2.06237e-05
0.76737 0.665616 -1.80362e-05
0.778373 0.670826 -1.57595e-05
0.789346 0.675762 -1.37864e-05
0.800288 0.680425 -1.20678e-05
0.81123 0.685088 -1.05617e-05
0.822172 0.689751 -9.24536e-06
0.833079 0.694171 -8.11033e-06
0.843949 0.698347 -7.12679e-06
0.85482 0.702524 -6.26916e-06
0.865691 0.706701 -5.52349e-06
0.876521 0.710661 -4.88408e-06
0.887312 0.714405 -4.33443e-06
0.898102 0.718149 -3.86021e-06
0.908893 0.721893 -3.45384e-06
0.919638 0.725445 -3.11235e-06
0.930339 0.728804 -2.82653e-06
0.941039 0.732164 -2.58935e-06
0.95174 0.735524 -2.3973e-06
0.962392 0.738712 -2.24914e-06
0.972997 0.74173 -2.14033e-06
0.983602 0.744748 -2.06841e-06
0.994207 0.747766 -2.03258e-06
0.137075 0.0175011 -5.95927e-05
0.147059 0.0351452 -6.00706e-05
0.157042 0.0527893 -6.1075e-05
0.167026 0.0704333 -6.26815e-05
0.177193 0.087606 -6.5053e-05
0.187542 0.104307 -6.79159e-05
0.197891 0.121008 -7.14404e-05
0.208241 0.13771 -7.57675e-05
0.21867 0.154043 -8.1118e-05
0.229179 0.170009 -8.71793e-05
0.239689 0.185974 -9.42075e-05
0.250198 0.20194 -0.000102404
0.260776 0.217457 -0.000112038
0.271423 0.232525 -0.000122717
0.28207 0.247593 -0.000134803
0.292717 0.262662 -0.000148539
0.303424 0.277228 -0.000164197
0.314191 0.291293 -0.000181161
0.324959 0.305358 -0.000199842
0.335726 0.319423 -0.000220405
0.346545 0.332962 -0.000242978
0.357414 0.345974 -0.000266393
0.368284 0.358986 -0.000290963
0.379154 0.371998 -0.000316584
0.390067 0.384479 -0.000343115
0.401022 0.396428 -0.000368567
0.411977 0.408377 -0.000393131
0.422932 0.420327 -0.000416473
0.43392 0.431753 -0.000438415
0.444942 0.442658 -0.00045644
0.455964 0.453562 -0.000470908
0.466985 0.464466 -0.000481694
0.478031 0.474867 -0.000489116
0.489101 0.484766 -0.000490946
0.500171 0.494664 -0.000487992
0.511241 0.504562 -0.000480706
0.522326 0.513984 -0.000470112
0.533428 0.52293 -0.00045485
0.544529 0.531875 -0.000435983
0.555631 0.540821 -0.000414356
0.566739 0.549322 -0.000391301
0.577854 0.557378 -0.000366209
0.588969 0.565435 -0.000339926
0.600084 0.573491 -0.000313218
0.611198 0.581137 -0.000287161
0.62231 0.588373 -0.000261482
0.633422 0.595609 -0.000236545
0.644534 0.602845 -0.000212761
0.655636 0.609706 -0.000190726
0.666728 0.616193 -0.000170205
0.67782 0.62268 -0.000151185
0.688912 0.629167 -0.000133759
0.699987 0.635315 -0.000118148
0.711046 0.641124 -0.000104115
0.722105 0.646933 -9.14904e-05
0.733163 0.652741 -8.02148e-05
0.744197 0.658245 -7.03224e-05
0.755207 0.663444 -6.16136e-05
0.766217 0.668644 -5.39108e-05
0.777227 0.673843 -4.71275e-05
0.788206 0.678769 -4.12407e-05
0.799156 0.683423 -3.61127e-05
0.810105 0.688077 -3.16159e-05
0.821055 0.692731 -2.76834e-05
0.831968 0.697142 -2.42888e-05
0.842847 0.701311 -2.13476e-05
0.853725 0.705479 -1.87819e-05
0.864603 0.709647 -1.65503e-05
0.875442 0.7136 -1.46352e-05
0.88624 0.717336 -1.29894e-05
0.897039 0.721073 -1.15692e-05
0.907837 0.724809 -1.03518e-05
0.918591 0.728354 -9.32815e-06
0.9293 0.731706 -8.47179e-06
0.940008 0.735059 -7.76111e-06
0.950717 0.738411 -7.18559e-06
0.961379 0.741593 -6.74121e-06
0.971992 0.744605 -6.41513e-06
0.982606 0.747616 -6.19963e-06
0.99322 0.750627 -6.09226e-06
0.134907 0.0232241 -9.97283e-05
0.144942 0.0407421 -0.000100527
0.154977 0.05826 -0.000102205
0.165011 0.075778 -0.000104885
0.175223 0.092834 -0.000108795
0.185613 0.109428 -0.000113572
0.196002 0.126022 -0.00011946
0.206391 0.142616 -0.000126683
0.216857 0.158852 -0.00013556
0.227398 0.17473 -0.000145674
0.237939 0.190608 -0.000157406
0.24848 0.206486 -0.000171079
0.259087 0.221923 -0.000187079
0.269759 0.236919 -0.000204876
0.280432 0.251915 -0.000225012
0.291104 0.266911 -0.000247876
0.301834 0.281412 -0.000273834
0.312622 0.295418 -0.000302016
0.32341 0.309424 -0.000333025
0.334197 0.32343 -0.000367113
0.345034 0.336914 -0.000404364
0.355921 0.349878 -0.000443072
0.366807 0.362842 -0.000483644
0.377694 0.375805 -0.00052588
0.388621 0.388242 -0.000569368
0.39959 0.400151 -0.000611193
0.410558 0.41206 -0.000651507
0.421527 0.423969 -0.000689734
0.432528 0.435359 -0.000725354
0.443561 0.44623 -0.00075475
0.454593 0.457102 -0.000778289
0.465626 0.467973 -0.000795737
0.476682 0.478344 -0.000807371
0.487762 0.488215 -0.000810125
0.498841 0.498086 -0.000805059
0.509921 0.507957 -0.00079288
0.521015 0.517354 -0.000775046
0.532125 0.526277 -0.000749849
0.543235 0.5352 -0.000718776
0.554345 0.544123 -0.000683179
0.565461 0.552603 -0.000645081
0.576583 0.560641 -0.000603845
0.587706 0.568679 -0.000560669
0.598829 0.576716 -0.000516785
0.609949 0.584345 -0.000473871
0.621068 0.591565 -0.000431673
0.632187 0.598785 -0.00039069
0.643306 0.606005 -0.000351576
0.654415 0.612852 -0.000315278
0.665514 0.619326 -0.000281501
0.676612 0.625799 -0.00025018
0.687711 0.632273 -0.000221464
0.698793 0.638408 -0.0001957
0.709859 0.644205 -0.000172546
0.720924 0.650003 -0.000151701
0.731989 0.6558 -0.000133069
0.74303 0.661293 -0.000116704
0.754047 0.666482 -0.000102294
0.765064 0.671671 -8.95411e-05
0.77608 0.67686 -7.83029e-05
0.787067 0.681777 -6.85405e-05
0.798024 0.686422 -6.00349e-05
0.80898 0.691066 -5.25727e-05
0.819937 0.695711 -4.60438e-05
0.830858 0.700114 -4.04037e-05
0.841744 0.704274 -3.55166e-05
0.85263 0.708434 -3.12523e-05
0.863516 0.712594 -2.75421e-05
0.874362 0.716538 -2.43565e-05
0.885168 0.720267 -2.1619e-05
0.895975 0.723996 -1.92564e-05
0.906781 0.727725 -1.7231e-05
0.917543 0.731262 -1.55269e-05
0.92826 0.734608 -1.41018e-05
0.938978 0.737954 -1.29191e-05
0.949695 0.741299 -1.19612e-05
0.960365 0.744474 -1.12212e-05
0.970988 0.747479 -1.06784e-05
0.98161 0.750484 -1.03198e-05
0.992233 0.753488 -1.01411e-05
0.132739 0.0289471 -0.000140135
0.142825 0.046339 -0.000141255
0.152911 0.0637308 -0.000143608
0.162996 0.0811226 -0.000147358
0.173254 0.098062 -0.000152784
0.183683 0.114549 -0.000159474
0.194113 0.131036 -0.00016773
0.204542 0.147523 -0.000177851
0.215043 0.163661 -0.000190231
0.225616 0.179451 -0.000204399
0.236189 0.195241 -0.000220841
0.246763 0.211031 -0.000239989
0.257398 0.226388 -0.000262321
0.268096 0.241312 -0.000287222
0.278794 0.256236 -0.000315391
0.289492 0.27116 -0.000347345
0.300245 0.285596 -0.000383507
0.311053 0.299543 -0.000422822
0.32186 0.313489 -0.000466052
0.332668 0.327436 -0.000513507
0.343524 0.340867 -0.000565175
0.354427 0.353782 -0.000618922
0.36533 0.366697 -0.000675201
0.376233 0.379612 -0.000733684
0.387176 0.392004 -0.000793622
0.398158 0.403873 -0.00085136
0.40914 0.415742 -0.000906949
0.420122 0.427611 -0.000959541
0.431135 0.438965 -0.0010082
0.442179 0.449803 -0.00104847
0.453223 0.460641 -0.00108064
0.464267 0.471479 -0.00110434
0.475334 0.48182 -0.00111971
0.486423 0.491664 -0.00112315
0.497512 0.501508 -0.00111585
0.508601 0.511352 -0.00109873
0.519704 0.520724 -0.00107359
0.530822 0.529624 -0.00103861
0.54194 0.538525 -0.000995585
0.553058 0.547425 -0.000946331
0.564183 0.555885 -0.000893473
0.575313 0.563904 -0.000836504
0.586443 0.571922 -0.000776892
0.597573 0.579941 -0.00071629
0.608701 0.587553 -0.000656921
0.619827 0.594757 -0.000598644
0.630952 0.601962 -0.000542039
0.642078 0.609166 -0.000487991
0.653194 0.615998 -0.000437761
0.664299 0.622458 -0.000391048
0.675405 0.628919 -0.000347713
0.68651 0.635379 -0.000307956
0.697599 0.641502 -0.000272244
0.708671 0.647287 -0.000240148
0.719743 0.653073 -0.000211237
0.730815 0.658858 -0.000185378
0.741863 0.664341 -0.00016264
0.752887 0.669519 -0.000142615
0.763911 0.674698 -0.000124882
0.774934 0.679877 -0.000109245
0.785928 0.684784 -9.56505e-05
0.796892 0.68942 -8.3803e-05
0.807856 0.694056 -7.34044e-05
0.818819 0.698691 -6.4302e-05
0.829748 0.703085 -5.64338e-05
0.840642 0.707237 -4.96151e-05
0.851535 0.711389 -4.36637e-05
0.862429 0.715541 -3.84843e-05
0.873282 0.719477 -3.40352e-05
0.884097 0.723198 -3.02118e-05
0.894911 0.72692 -2.69117e-05
0.905725 0.730641 -2.40822e-05
0.916495 0.734171 -2.17006e-05
0.927221 0.73751 -1.97091e-05
0.937947 0.740848 -1.80565e-05
0.948673 0.744187 -1.67179e-05
0.959351 0.747355 -1.56832e-05
0.969983 0.750353 -1.49246e-05
0.980615 0.753352 -1.44234e-05
0.991246 0.75635 -1.41737e-05
0.130572 0.0346701 -0.000180783
0.140708 0.0519358 -0.000182225
0.150845 0.0692016 -0.000185252
0.160981 0.0864673 -0.000190067
0.171285 0.10329 -0.00019699
0.181754 0.11967 -0.00020559
0.192223 0.13605 -0.000216214
0.202693 0.152429 -0.000229231
0.21323 0.16847 -0.000245095
0.223835 0.184172 -0.000263315
0.23444 0.199874 -0.000284465
0.245045 0.215576 -0.000309081
0.255709 0.230853 -0.00033771
0.266432 0.245705 -0.000369695
0.277156 0.260558 -0.000405872
0.287879 0.27541 -0.000446868
0.298655 0.28978 -0.000493137
0.309483 0.303667 -0.000543493
0.320311 0.317555 -0.000598824
0.33114 0.331443 -0.000659476
0.342014 0.34482 -0.000725304
0.352933 0.357686 -0.000793828
0.363853 0.370552 -0.000865507
0.374773 0.383419 -0.000939861
0.38573 0.395766 -0.00101576
0.396726 0.407595 -0.00108895
0.407721 0.419424 -0.00115933
0.418717 0.431253 -0.00122577
0.429743 0.44257 -0.00128685
0.440798 0.453376 -0.00133749
0.451853 0.464181 -0.00137786
0.462908 0.474986 -0.0014074
0.473985 0.485297 -0.00142608
0.485084 0.495113 -0.00142995
0.496182 0.50493 -0.00142029
0.507281 0.514746 -0.00139818
0.518393 0.524093 -0.00136568
0.52952 0.532971 -0.00132106
0.540646 0.541849 -0.00126634
0.551772 0.550727 -0.00120373
0.562904 0.559166 -0.00113641
0.574042 0.567166 -0.00106411
0.58518 0.575166 -0.000988503
0.596317 0.583166 -0.000911633
0.607452 0.590761 -0.000836222
0.618585 0.597949 -0.000762299
0.629718 0.605138 -0.000690495
0.64085 0.612327 -0.000621903
0.651973 0.619144 -0.000558082
0.663085 0.625591 -0.000498753
0.674197 0.632038 -0.000443695
0.68531 0.638484 -0.000393151
0.696405 0.644595 -0.000347701
0.707484 0.650369 -0.00030685
0.718563 0.656143 -0.000270033
0.729642 0.661917 -0.00023708
0.740696 0.667388 -0.000208077
0.751727 0.672557 -0.000182526
0.762757 0.677725 -0.000159889
0.773788 0.682894 -0.000139915
0.784789 0.687792 -0.000122536
0.79576 0.692418 -0.000107386
0.806731 0.697045 -9.40838e-05
0.817702 0.701672 -8.24342e-05
0.828638 0.706057 -7.23579e-05
0.839539 0.7102 -6.36245e-05
0.85044 0.714344 -5.59999e-05
0.861341 0.718487 -4.93625e-05
0.872203 0.722416 -4.36585e-05
0.883025 0.72613 -3.87566e-05
0.893847 0.729843 -3.45251e-05
0.904669 0.733557 -3.08964e-05
0.915447 0.73708 -2.7841e-05
0.926182 0.740411 -2.52865e-05
0.936916 0.743743 -2.31665e-05
0.94765 0.747075 -2.14493e-05
0.958338 0.750236 -2.01214e-05
0.968978 0.753228 -1.91481e-05
0.979619 0.75622 -1.85051e-05
0.99026 0.759211 -1.81849e-05
0.128404 0.0403931 -0.000221643
0.138591 0.0575327 -0.000223406
0.148779 0.0746723 -0.000227105
0.158967 0.0918119 -0.00023298
0.169315 0.108518 -0.000241383
0.179825 0.124791 -0.000251886
0.190334 0.141063 -0.000264878
0.200844 0.157336 -0.000280784
0.211417 0.173279 -0.000300113
0.222054 0.188893 -0.000322376
0.23269 0.204508 -0.000348231
0.243327 0.220122 -0.000378301
0.25402 0.235319 -0.000413192
0.264769 0.250099 -0.000452235
0.275517 0.264879 -0.000496385
0.286266 0.279659 -0.000546369
0.297065 0.293964 -0.000602646
0.307914 0.307792 -0.000663939
0.318762 0.321621 -0.000731241
0.329611 0.335449 -0.000804912
0.340503 0.348773 -0.000884643
0.35144 0.36159 -0.000967674
0.362376 0.374408 -0.00105444
0.373312 0.387226 -0.00114428
0.384285 0.399529 -0.00123566
0.395294 0.411318 -0.00132384
0.406303 0.423107 -0.00140853
0.417312 0.434896 -0.00148828
0.42835 0.446176 -0.0015612
0.439417 0.456948 -0.00162174
0.450483 0.467721 -0.00166985
0.46155 0.478493 -0.00170483
0.472637 0.488773 -0.0017264
0.483745 0.498563 -0.00173047
0.494853 0.508352 -0.00171831
0.505961 0.518141 -0.00169115
0.517082 0.527463 -0.00165128
0.528217 0.536319 -0.00159715
0.539352 0.545174 -0.00153096
0.550486 0.554029 -0.00145529
0.561626 0.562448 -0.00137381
0.572771 0.570429 -0.00128658
0.583916 0.57841 -0.00119541
0.595062 0.586391 -0.00110272
0.606204 0.593969 -0.00101168
0.617343 0.601141 -0.000922543
0.628483 0.608314 -0.00083596
0.639623 0.615487 -0.000753218
0.650752 0.62229 -0.000676151
0.661871 0.628724 -0.000604529
0.67299 0.635157 -0.00053804
0.684109 0.64159 -0.000476968
0.695211 0.647688 -0.000421997
0.706297 0.653451 -0.000372581
0.717382 0.659213 -0.000328022
0.728468 0.664975 -0.000288116
0.739529 0.670436 -0.00025296
0.750567 0.675594 -0.00022198
0.761604 0.680753 -0.000194518
0.772642 0.685911 -0.000170274
0.783649 0.690799 -0.000149163
0.794628 0.695417 -0.000130754
0.805606 0.700034 -0.000114584
0.816584 0.704652 -0.000100417
0.827528 0.709028 -8.81554e-05
0.838436 0.713163 -7.75264e-05
0.849345 0.717299 -6.82446e-05
0.860254 0.721434 -6.01623e-05
0.871123 0.725355 -5.32139e-05
0.881953 0.729061 -4.72422e-05
0.892783 0.732767 -4.20866e-05
0.903613 0.736473 -3.76647e-05
0.9144 0.739988 -3.39402e-05
0.925142 0.743313 -3.08266e-05
0.935885 0.746638 -2.82425e-05
0.946628 0.749962 -2.61492e-05
0.957324 0.753117 -2.453e-05
0.967974 0.756102 -2.33434e-05
0.978623 0.759088 -2.25596e-05
0.989273 0.762073 -2.21692e-05
0.126236 0.0461161 -0.000262686
0.136475 0.0631296 -0.000264767
0.146713 0.0801431 -0.000269136
0.156952 0.0971566 -0.000276063
0.167346 0.113746 -0.000285929
0.177895 0.129912 -0.000298329
0.188445 0.146077 -0.000313683
0.198994 0.162243 -0.00033247
0.209604 0.178089 -0.000355245
0.220272 0.193615 -0.000381542
0.230941 0.209141 -0.00041209
0.241609 0.224667 -0.000447596
0.252331 0.239784 -0.000488711
0.263105 0.254492 -0.000534779
0.273879 0.2692 -0.000586861
0.284653 0.283909 -0.00064577
0.295475 0.298148 -0.000711949
0.306344 0.311917 -0.000784071
0.317213 0.325687 -0.000863205
0.328082 0.339456 -0.000949709
0.338993 0.352725 -0.00104308
0.349946 0.365494 -0.00114034
0.360899 0.378263 -0.00124187
0.371851 0.391032 -0.00134681
0.382839 0.403291 -0.0014532
0.393862 0.41504 -0.0015559
0.404885 0.426789 -0.00165441
0.415907 0.438538 -0.00174697
0.426958 0.449782 -0.00183116
0.438035 0.460521 -0.00190109
0.449113 0.47126 -0.00195652
0.460191 0.481999 -0.00199653
0.471288 0.49225 -0.0020206
0.482406 0.502012 -0.00202462
0.493524 0.511774 -0.00200983
0.504641 0.521536 -0.00197757
0.515771 0.530833 -0.00193031
0.526914 0.539666 -0.0018668
0.538057 0.548499 -0.00178938
0.5492 0.557332 -0.00170095
0.560348 0.565729 -0.00160562
0.571501 0.573692 -0.00150383
0.582653 0.581654 -0.00139754
0.593806 0.589617 -0.00128947
0.604955 0.597176 -0.00118322
0.616102 0.604334 -0.00107929
0.627248 0.611491 -0.000978343
0.638395 0.618648 -0.000881845
0.649531 0.625436 -0.000791879
0.660657 0.631856 -0.000708288
0.671783 0.638276 -0.000630665
0.682908 0.644696 -0.000559328
0.694017 0.650781 -0.000495058
0.705109 0.656532 -0.000437273
0.716202 0.662283 -0.000385143
0.727294 0.668034 -0.000338428
0.738362 0.673483 -0.000297239
0.749407 0.678632 -0.00026093
0.760451 0.68378 -0.000228729
0.771495 0.688928 -0.000200285
0.78251 0.693806 -0.000175497
0.793496 0.698415 -0.000153877
0.804481 0.703023 -0.000134879
0.815467 0.707632 -0.000118226
0.826418 0.712 -0.000103806
0.837334 0.716127 -9.13029e-05
0.84825 0.720254 -8.0382e-05
0.859166 0.724381 -7.08699e-05
0.870044 0.728293 -6.26889e-05
0.880881 0.731992 -5.56575e-05
0.891719 0.735691 -4.95863e-05
0.902557 0.739389 -4.43784e-05
0.913352 0.742897 -3.99903e-05
0.924103 0.746215 -3.63222e-05
0.934854 0.749532 -3.32779e-05
0.945606 0.75285 -3.08115e-05
0.956311 0.755998 -2.89032e-05
0.966969 0.758977 -2.7505e-05
0.977628 0.761955 -2.65814e-05
0.988286 0.764934 -2.61216e-05
0.124068 0.0518391 -0.000303881
0.134358 0.0687265 -0.000306277
0.144647 0.0856138 -0.000311311
0.154937 0.102501 -0.000319285
0.165376 0.118974 -0.000330592
0.175966 0.135033 -0.000344882
0.186556 0.151091 -0.000362592
0.197145 0.167149 -0.000384251
0.20779 0.182898 -0.000410448
0.218491 0.198336 -0.000440766
0.229191 0.213774 -0.000475994
0.239892 0.229212 -0.000516914
0.250642 0.244249 -0.000564207
0.261441 0.258886 -0.000617264
0.272241 0.273522 -0.000677232
0.283041 0.288158 -0.000744996
0.293885 0.302331 -0.000820963
0.304775 0.316042 -0.000903798
0.315664 0.329752 -0.000994616
0.326554 0.343463 -0.00109376
0.337483 0.356678 -0.0012005
0.348452 0.369398 -0.00131171
0.359421 0.382119 -0.00142767
0.370391 0.394839 -0.00154733
0.381394 0.407054 -0.00166824
0.39243 0.418763 -0.001785
0.403466 0.430471 -0.00189685
0.414502 0.44218 -0.00200169
0.425565 0.453388 -0.00209659
0.436654 0.464094 -0.00217543
0.447743 0.4748 -0.00223774
0.458832 0.485506 -0.00228239
0.46994 0.495726 -0.00230859
0.481067 0.505461 -0.00231233
0.492194 0.515196 -0.00229477
0.503321 0.52493 -0.00225736
0.51446 0.534203 -0.00220271
0.525612 0.543013 -0.00212995
0.536763 0.551823 -0.00204152
0.547914 0.560634 -0.00194061
0.55907 0.569011 -0.00183174
0.57023 0.576954 -0.00171578
0.58139 0.584898 -0.00159479
0.59255 0.592842 -0.00147178
0.603707 0.600384 -0.00135073
0.61486 0.607526 -0.00123244
0.626014 0.614667 -0.00111755
0.637167 0.621808 -0.0010077
0.64831 0.628582 -0.00090518
0.659443 0.634989 -0.000809949
0.670575 0.641395 -0.000721492
0.681708 0.647802 -0.000640158
0.692823 0.653875 -0.000566814
0.703922 0.659614 -0.00050086
0.715021 0.665353 -0.000441336
0.72612 0.671092 -0.000387963
0.737195 0.676531 -0.000340863
0.748246 0.681669 -0.00029933
0.759298 0.686807 -0.000262479
0.770349 0.691945 -0.000229911
0.781371 0.696814 -0.000201507
0.792364 0.701413 -0.000176727
0.803356 0.706013 -0.000154942
0.814349 0.710612 -0.000135841
0.825307 0.714971 -0.000119289
0.836231 0.71909 -0.000104936
0.847155 0.723209 -9.23965e-05
0.858079 0.727327 -8.14715e-05
0.868964 0.731232 -7.20714e-05
0.87981 0.734923 -6.39918e-05
0.890656 0.738614 -5.70146e-05
0.901501 0.742305 -5.10287e-05
0.912304 0.745806 -4.59833e-05
0.923064 0.749117 -4.17661e-05
0.933824 0.752427 -3.82661e-05
0.944583 0.755738 -3.54303e-05
0.955297 0.758879 -3.32353e-05
0.965964 0.761851 -3.16274e-05
0.976632 0.764823 -3.05655e-05
0.9873 0.767795 -3.00369e-05
0.121941 0.0577465 -0.000345719
0.132279 0.0745039 -0.000348445
0.142617 0.0912614 -0.000354163
0.152955 0.108019 -0.000363207
0.163438 0.124371 -0.000376006
0.174066 0.140319 -0.000392219
0.184693 0.156267 -0.000412325
0.195321 0.172215 -0.000436902
0.206 0.187862 -0.000466586
0.216731 0.203209 -0.000500984
0.227462 0.218556 -0.000540959
0.238193 0.233903 -0.000587368
0.248971 0.248857 -0.000640942
0.259795 0.263419 -0.000701072
0.270619 0.27798 -0.000769009
0.281443 0.292541 -0.000845711
0.29231 0.306646 -0.000931581
0.303219 0.320295 -0.00102519
0.314128 0.333943 -0.00112774
0.325037 0.347592 -0.00123953
0.335984 0.36075 -0.00135969
0.34697 0.37342 -0.0014848
0.357955 0.386089 -0.00161509
0.368941 0.398758 -0.00174931
0.379958 0.410926 -0.00188463
0.391008 0.422592 -0.0020152
0.402057 0.434258 -0.00214008
0.413107 0.445925 -0.00225687
0.424181 0.457093 -0.0023622
0.435281 0.467764 -0.00244959
0.446381 0.478435 -0.00251838
0.457481 0.489106 -0.0025673
0.468599 0.499294 -0.00259537
0.479736 0.509 -0.00259852
0.490873 0.518705 -0.00257794
0.502009 0.528411 -0.00253517
0.513157 0.537656 -0.00247306
0.524316 0.546442 -0.00239098
0.535476 0.555228 -0.00229149
0.546635 0.564014 -0.00217813
0.557799 0.572369 -0.00205585
0.568966 0.580292 -0.00192583
0.580134 0.588215 -0.00179026
0.591301 0.596138 -0.00165246
0.602465 0.603662 -0.00151683
0.613625 0.610786 -0.00138433
0.624785 0.61791 -0.00125566
0.635946 0.625035 -0.0011326
0.647095 0.631793 -0.00101771
0.658235 0.638184 -0.000910971
0.669374 0.644576 -0.000811795
0.680513 0.650968 -0.00072057
0.691635 0.657027 -0.000638257
0.702741 0.662754 -0.000564207
0.713846 0.66848 -0.000497348
0.724952 0.674206 -0.000437369
0.736033 0.679633 -0.000384405
0.747091 0.68476 -0.000337677
0.75815 0.689887 -0.000296198
0.769208 0.695014 -0.000259522
0.780237 0.699872 -0.000227518
0.791236 0.704461 -0.000199584
0.802236 0.709051 -0.000175019
0.813236 0.71364 -0.00015347
0.824201 0.71799 -0.000134791
0.835133 0.722099 -0.000118588
0.846064 0.726209 -0.000104428
0.856995 0.730319 -9.2089e-05
0.867888 0.734215 -8.14694e-05
0.878741 0.737898 -7.23398e-05
0.889595 0.741581 -6.44549e-05
0.900449 0.745263 -5.76894e-05
0.911259 0.748756 -5.19858e-05
0.922027 0.752059 -4.72181e-05
0.932796 0.755362 -4.32611e-05
0.943564 0.758665 -4.00549e-05
0.954286 0.761799 -3.75727e-05
0.964962 0.764764 -3.57544e-05
0.975638 0.767729 -3.45535e-05
0.986315 0.770695 -3.39557e-05
0.119855 0.0638383 -0.000388183
0.130239 0.080462 -0.000391252
0.140623 0.0970856 -0.000397673
0.151006 0.113709 -0.000407811
0.16153 0.129938 -0.000422149
0.172194 0.145772 -0.000440316
0.182858 0.161606 -0.000462854
0.193522 0.17744 -0.000490394
0.204234 0.192983 -0.00052363
0.214994 0.208235 -0.000562163
0.225754 0.223488 -0.000606946
0.236514 0.23874 -0.000658914
0.247318 0.253608 -0.000718867
0.258165 0.268091 -0.000786146
0.269013 0.282575 -0.000862129
0.27986 0.297058 -0.000947844
0.290748 0.311091 -0.00104372
0.301677 0.324675 -0.00114816
0.312605 0.338259 -0.00126246
0.323533 0.351843 -0.00138691
0.334498 0.364943 -0.00152049
0.345499 0.377558 -0.00165942
0.3565 0.390174 -0.00180392
0.367501 0.402789 -0.00195253
0.378532 0.414907 -0.0021021
0.389595 0.426529 -0.0022462
0.400657 0.438151 -0.00238379
0.411719 0.449772 -0.00251217
0.422806 0.4609 -0.00262763
0.433917 0.471533 -0.00272315
0.445028 0.482167 -0.00279802
0.456139 0.4928 -0.00285081
0.467267 0.502954 -0.00288048
0.478413 0.512628 -0.00288273
0.489559 0.522302 -0.00285886
0.500705 0.531976 -0.00281053
0.511861 0.541193 -0.0027409
0.523029 0.549953 -0.0026494
0.534196 0.558713 -0.00253884
0.545364 0.567472 -0.00241307
0.556535 0.575803 -0.00227752
0.567709 0.583704 -0.00213355
0.578884 0.591605 -0.00198356
0.590059 0.599507 -0.00183115
0.60123 0.60701 -0.00168117
0.612397 0.614115 -0.00153466
0.623564 0.621221 -0.00139239
0.634731 0.628326 -0.00125632
0.645887 0.635067 -0.00112925
0.657033 0.641443 -0.00101115
0.668178 0.647819 -0.000901391
0.679324 0.654194 -0.000800398
0.690453 0.660238 -0.000709238
0.701565 0.665951 -0.000627185
0.712677 0.671664 -0.000553067
0.723788 0.677376 -0.000486545
0.734877 0.68279 -0.000427776
0.745942 0.687904 -0.000375894
0.757006 0.693019 -0.000329818
0.768071 0.698134 -0.000289059
0.779107 0.70298 -0.000253478
0.790114 0.707559 -0.000222405
0.80112 0.712137 -0.000195069
0.812127 0.716716 -0.000171082
0.823099 0.721055 -0.000150283
0.834038 0.725155 -0.000132232
0.844976 0.729255 -0.000116455
0.855915 0.733355 -0.000102703
0.866815 0.737242 -9.08656e-05
0.877676 0.740916 -8.06861e-05
0.888538 0.74459 -7.18936e-05
0.899399 0.748263 -6.43483e-05
0.910218 0.751748 -5.79869e-05
0.920994 0.755043 -5.26684e-05
0.93177 0.758337 -4.82541e-05
0.942546 0.761632 -4.4677e-05
0.953277 0.764758 -4.19076e-05
0.963962 0.767716 -3.98786e-05
0.974647 0.770674 -3.85385e-05
0.985332 0.773631 -3.78711e-05
0.117769 0.0699301 -0.000430708
0.128199 0.08642 -0.000434114
0.138628 0.10291 -0.000441231
0.149057 0.1194 -0.000452454
0.159622 0.135505 -0.000468309
0.170322 0.151224 -0.000488419
0.181022 0.166944 -0.000513375
0.191722 0.182664 -0.00054386
0.202467 0.198103 -0.00058062
0.213256 0.213261 -0.000623263
0.224045 0.228419 -0.000672828
0.234835 0.243577 -0.000730319
0.245665 0.258359 -0.000796592
0.256536 0.272764 -0.000870962
0.267407 0.287169 -0.00095492
0.278278 0.301575 -0.00104955
0.289187 0.315537 -0.0011553
0.300135 0.329056 -0.00127041
0.311082 0.342575 -0.00139628
0.322029 0.356094 -0.00153316
0.333011 0.369135 -0.00167988
0.344028 0.381697 -0.00183231
0.355044 0.394258 -0.00199064
0.366061 0.40682 -0.00215321
0.377107 0.418889 -0.00231653
0.388182 0.430466 -0.00247367
0.399257 0.442043 -0.00262345
0.410332 0.453619 -0.00276288
0.421431 0.464706 -0.00288788
0.432553 0.475302 -0.00299104
0.443675 0.485898 -0.00307155
0.454796 0.496494 -0.00312781
0.465935 0.506613 -0.00315871
0.47709 0.516256 -0.00315982
0.488245 0.525899 -0.00313253
0.4994 0.535542 -0.0030786
0.510565 0.54473 -0.00300145
0.521741 0.553464 -0.00290068
0.532916 0.562197 -0.00277929
0.544092 0.570931 -0.00264141
0.555271 0.579237 -0.00249292
0.566453 0.587116 -0.00233541
0.577635 0.594996 -0.00217144
0.588816 0.602875 -0.00200488
0.599994 0.610358 -0.00184097
0.611168 0.617445 -0.00168091
0.622342 0.624531 -0.0015255
0.633515 0.631618 -0.00137682
0.644678 0.638341 -0.00123795
0.655831 0.644701 -0.00110885
0.666983 0.651061 -0.000988845
0.678136 0.657421 -0.00087838
0.689271 0.66345 -0.000778627
0.700389 0.669149 -0.000688799
0.711507 0.674847 -0.000607624
0.722625 0.680546 -0.000534733
0.73372 0.685947 -0.000470304
0.744792 0.691049 -0.000413394
0.755863 0.696151 -0.000362829
0.766935 0.701254 -0.00031808
0.777977 0.706089 -0.000278998
0.788991 0.710657 -0.000244851
0.800004 0.715224 -0.000214799
0.811017 0.719792 -0.000188419
0.821997 0.724121 -0.000165537
0.832943 0.728211 -0.000145672
0.843889 0.732301 -0.000128304
0.854835 0.736391 -0.000113163
0.865742 0.740269 -0.000100127
0.876611 0.743934 -8.89139e-05
0.88748 0.747599 -7.92274e-05
0.898349 0.751264 -7.0914e-05
0.909176 0.754739 -6.39041e-05
0.91996 0.758026 -5.80427e-05
0.930745 0.761313 -5.31775e-05
0.941529 0.764599 -4.92348e-05
0.952268 0.767718 -4.61821e-05
0.962962 0.770668 -4.39453e-05
0.973655 0.773618 -4.24679e-05
0.984349 0.776568 -4.1732e-05
0.115683 0.076022 -0.000473252
0.126158 0.092378 -0.000476991
0.136633 0.108734 -0.000484797
0.147109 0.12509 -0.000497094
0.157714 0.141071 -0.000514446
0.168451 0.156677 -0.000536483
0.179187 0.172283 -0.000563841
0.189923 0.187889 -0.00059725
0.2007 0.203223 -0.000637504
0.211519 0.218287 -0.000684231
0.222337 0.233351 -0.000738544
0.233155 0.248414 -0.000801515
0.244012 0.26311 -0.000874048
0.254906 0.277437 -0.000955446
0.265801 0.291764 -0.0010473
0.276695 0.306091 -0.00115075
0.287626 0.319982 -0.00126622
0.298592 0.333437 -0.00139185
0.309559 0.346891 -0.0015291
0.320525 0.360346 -0.00167817
0.331525 0.373327 -0.00183771
0.342557 0.385835 -0.00200331
0.353589 0.398343 -0.0021751
0.364621 0.410851 -0.0023512
0.375681 0.422871 -0.00252776
0.386769 0.434403 -0.00269743
0.397857 0.445935 -0.00285889
0.408945 0.457466 -0.00300883
0.420056 0.468512 -0.00314282
0.431189 0.47907 -0.00325312
0.442321 0.489629 -0.00333883
0.453454 0.500188 -0.00339816
0.464603 0.510273 -0.00342994
0.475767 0.519885 -0.00342969
0.486931 0.529496 -0.00339884
0.498096 0.539108 -0.00333927
0.50927 0.548267 -0.00325463
0.520453 0.556975 -0.00314473
0.531637 0.565682 -0.00301274
0.54282 0.574389 -0.00286305
0.554007 0.582672 -0.00270196
0.565196 0.590529 -0.00253131
0.576385 0.598386 -0.00235381
0.587574 0.606243 -0.00217356
0.598759 0.613706 -0.00199618
0.609939 0.620774 -0.00182301
0.62112 0.627842 -0.00165489
0.6323 0.63491 -0.00149404
0.64347 0.641616 -0.00134374
0.654629 0.647959 -0.00120401
0.665788 0.654303 -0.00107408
0.676947 0.660647 -0.000954446
0.688089 0.666661 -0.000846359
0.699213 0.672346 -0.000748989
0.710338 0.678031 -0.000660962
0.721462 0.683716 -0.00058188
0.732564 0.689103 -0.000511941
0.743642 0.694193 -0.000450132
0.75472 0.699284 -0.000395193
0.765798 0.704374 -0.000346549
0.776848 0.709198 -0.000304044
0.787868 0.713754 -0.000266891
0.798888 0.718311 -0.000234182
0.809908 0.722868 -0.000205459
0.820895 0.727187 -0.000180534
0.831848 0.731267 -0.00015889
0.842801 0.735347 -0.000139961
0.853755 0.739428 -0.000123455
0.86467 0.743296 -0.000109241
0.875546 0.746952 -9.7012e-05
0.886423 0.750608 -8.64466e-05
0.8973 0.754264 -7.73777e-05
0.908134 0.757731 -6.97294e-05
0.918927 0.761009 -6.33337e-05
0.92972 0.764288 -5.80248e-05
0.940512 0.767566 -5.37222e-05
0.95126 0.770677 -5.03904e-05
0.961962 0.773619 -4.7949e-05
0.972664 0.776562 -4.63364e-05
0.983366 0.779504 -4.5533e-05
0.113597 0.0821138 -0.000515776
0.124118 0.0983361 -0.000519843
0.134639 0.114558 -0.00052833
0.14516 0.130781 -0.000541689
0.155807 0.146638 -0.000560517
0.166579 0.16213 -0.000584464
0.177351 0.177621 -0.000614206
0.188124 0.193113 -0.000650516
0.198933 0.208344 -0.000694232
0.209781 0.223313 -0.00074501
0.220629 0.238282 -0.000804034
0.231476 0.253251 -0.000872439
0.242359 0.26786 -0.000951166
0.253277 0.282109 -0.00103952
0.264195 0.296359 -0.00113918
0.275113 0.310608 -0.00125134
0.286065 0.324427 -0.00137638
0.29705 0.337817 -0.00151237
0.308036 0.351207 -0.0016608
0.319021 0.364597 -0.0018218
0.330038 0.377519 -0.00199385
0.341086 0.389973 -0.00217228