Variables = x, y, ugrad, ux, uy
ZONE I= 80 J= 80 F=point
0.139243 0.0117781 0.00846755 0.00738936 -0.00413483
0.149176 0.0295483 0.00872629 0.00761121 -0.00426821
0.159108 0.0473185 0.00907511 0.00791118 -0.00444643
0.169041 0.0650887 0.00953118 0.00830363 -0.00467901
0.179162 0.0823779 0.00978516 0.00831783 -0.00515394
0.189471 0.0991862 0.010424 0.00885751 -0.00549582
0.199781 0.115995 0.011192 0.0095057 -0.00590784
0.21009 0.132803 0.0121203 0.0102887 -0.00640666
0.220483 0.149234 0.0129576 0.0107964 -0.00716501
0.230961 0.165288 0.0141782 0.0118108 -0.00784383
0.241438 0.181341 0.0156026 0.0129934 -0.00863779
0.251916 0.197395 0.017277 0.0143828 -0.00957232
0.262465 0.212992 0.0187867 0.0152734 -0.0109391
0.273087 0.228132 0.020907 0.0169966 -0.0121744
0.283708 0.243272 0.0233379 0.0189706 -0.0135931
0.29433 0.258412 0.0261394 0.0212448 -0.0152291
0.305014 0.273044 0.028618 0.022587 -0.0175732
0.315761 0.287168 0.0320215 0.0252785 -0.0196564
0.326508 0.301292 0.0358283 0.0282871 -0.0219888
0.337255 0.315416 0.0400884 0.031654 -0.024599
0.348055 0.329009 0.0436863 0.0333061 -0.02827
0.358908 0.34207 0.0484981 0.0369946 -0.0313603
0.369761 0.355131 0.0536416 0.040936 -0.034665
0.380615 0.368192 0.0591125 0.0451296 -0.0381786
0.391512 0.380717 0.0632812 0.046374 -0.0430577
0.402454 0.392706 0.0687287 0.0504125 -0.0467142
0.413395 0.404695 0.0741234 0.0544117 -0.0503353
0.424337 0.416684 0.079402 0.058327 -0.0538761
0.435313 0.428148 0.0825676 0.0578746 -0.0588893
0.446323 0.439085 0.086791 0.0609109 -0.0618267
0.457334 0.450022 0.090403 0.0635126 -0.064334
0.468344 0.46096 0.0933636 0.0656515 -0.0663826
0.479379 0.471391 0.0937182 0.0625101 -0.0698254
0.49044 0.481316 0.0948488 0.0633562 -0.0705853
0.5015 0.491242 0.0950559 0.0635722 -0.0706696
0.51256 0.501167 0.0944065 0.0632015 -0.0701296
0.523637 0.510614 0.0913831 0.0576869 -0.0708737
0.53473 0.519582 0.0890398 0.056293 -0.0689869
0.545824 0.528551 0.0859447 0.0544061 -0.0665317
0.556917 0.537519 0.0822509 0.052121 -0.0636288
0.568017 0.546041 0.0770084 0.0457607 -0.0619375
0.579125 0.554116 0.0725022 0.0431449 -0.0582673
0.590232 0.562191 0.0676999 0.040337 -0.054371
0.60134 0.570266 0.0627504 0.0374231 -0.0503699
0.612446 0.577929 0.0571437 0.0317953 -0.0474812
0.623551 0.585181 0.0522992 0.0291353 -0.043432
0.634656 0.592433 0.0475526 0.0265194 -0.0394711
0.645761 0.599684 0.0429878 0.0239917 -0.03567
0.656857 0.60656 0.0383522 0.019881 -0.0327969
0.667942 0.613061 0.0343771 0.0178364 -0.029388
0.679027 0.619561 0.0306709 0.0159262 -0.0262118
0.690113 0.626061 0.0272556 0.0141595 -0.023289
0.701181 0.632222 0.0240061 0.011539 -0.021051
0.712233 0.638042 0.0212383 0.0102136 -0.0186212
0.723285 0.643862 0.0187369 0.00901495 -0.0164256
0.734337 0.649683 0.0164927 0.00793642 -0.0144576
0.745364 0.655198 0.0144435 0.00641175 -0.0129423
0.756367 0.660407 0.0127003 0.00563854 -0.0113801
0.76737 0.665616 0.0111528 0.00495226 -0.00999304
0.778373 0.670826 0.00978491 0.00434419 -0.00876769
0.789346 0.675762 0.00856672 0.00350075 -0.00781879
0.800288 0.680425 0.00752675 0.00307505 -0.00686994
0.81123 0.685088 0.0066118 0.00270085 -0.00603501
0.822172 0.689751 0.00580903 0.00237183 -0.00530275
0.833079 0.694171 0.00510545 0.00191567 -0.00473243
0.843949 0.698347 0.00450148 0.00168798 -0.00417302
0.85482 0.702524 0.00397308 0.00148897 -0.00368352
0.865691 0.706701 0.00351218 0.00131496 -0.00325673
0.876521 0.710661 0.00311398 0.00106981 -0.00292444
0.887312 0.714405 0.00277207 0.00095092 -0.00260387
0.898102 0.718149 0.00247638 0.000848087 -0.00232663
0.908893 0.721893 0.00222247 0.000759384 -0.00208871
0.919638 0.725445 0.0020094 0.000628555 -0.00190856
0.930339 0.728804 0.0018302 0.00057045 -0.00173903
0.941039 0.732164 0.00168153 0.00052194 -0.00159848
0.95174 0.735524 0.00156139 0.000482175 -0.00148508
0.962392 0.738712 0.00147067 0.000413719 -0.00141128
0.972997 0.74173 0.00140357 0.000392034 -0.00134771
0.983602 0.744748 0.00136039 0.000377038 -0.0013071
0.994207 0.747766 0.00134081 0.000368545 -0.00128917
0.137075 0.0175011 0.0084905 0.00738376 -0.0041915
0.147059 0.0351452 0.00873634 0.00758548 -0.00433408
0.157042 0.0527893 0.00907071 0.00786266 -0.00452287
0.167026 0.0704333 0.00950887 0.00822718 -0.00476781
0.177193 0.087606 0.00974797 0.00821514 -0.00524733
0.187542 0.104307 0.0103722 0.00872999 -0.00560082
0.197891 0.121008 0.011123 0.00934813 -0.00602766
0.208241 0.13771 0.0120293 0.0100935 -0.00654412
0.21867 0.154043 0.0128471 0.010564 -0.00731087
0.229179 0.170009 0.0140473 0.0115418 -0.00800697
0.239689 0.185974 0.0154468 0.0126794 -0.00882255
0.250198 0.20194 0.0170897 0.0140132 -0.00978205
0.260776 0.217457 0.0185732 0.0148444 -0.0111627
0.271423 0.232525 0.020661 0.0165104 -0.0124211
0.28207 0.247593 0.0230514 0.0184137 -0.0138673
0.292717 0.262662 0.0258017 0.0206027 -0.0155325
0.303424 0.277228 0.0282395 0.0218518 -0.0178877
0.314191 0.291293 0.0315861 0.0244565 -0.019989
0.324959 0.305358 0.0353221 0.0273603 -0.0223399
0.335726 0.319423 0.0394956 0.0306063 -0.0249631
0.346545 0.332962 0.043025 0.0321341 -0.0286103
0.357414 0.345974 0.0477426 0.0357173 -0.0316801
0.368284 0.358986 0.0527757 0.0395385 -0.0349569
0.379154 0.371998 0.0581191 0.0436025 -0.0384272
0.390067 0.384479 0.0621906 0.0447424 -0.0431948
0.401022 0.396428 0.0675198 0.0487139 -0.0467534
0.411977 0.408377 0.0727897 0.0526443 -0.0502685
0.422932 0.420327 0.0779369 0.0564948 -0.0536888
0.43392 0.431753 0.0810098 0.0560515 -0.0584877
0.444942 0.442658 0.0851477 0.0591359 -0.0612624
0.455964 0.453562 0.0886872 0.0617931 -0.0636162
0.466985 0.464466 0.0915841 0.0639934 -0.065517
0.478031 0.474867 0.0919012 0.0610247 -0.0687154
0.489101 0.484766 0.0930406 0.0620452 -0.0693322
0.500171 0.494664 0.0932804 0.0624334 -0.0693058
0.511241 0.504562 0.0926769 0.0622221 -0.0686834
0.522326 0.513984 0.0896892 0.0569787 -0.0692645
0.533428 0.52293 0.0874521 0.0557989 -0.0673377
0.544529 0.531875 0.08448 0.0541055 -0.0648804
0.555631 0.540821 0.0809115 0.0519788 -0.062007
0.566739 0.549322 0.0757439 0.0458596 -0.060283
0.577854 0.557378 0.0713849 0.0433943 -0.0566811
0.588969 0.565435 0.066731 0.0407087 -0.0528755
0.600084 0.573491 0.0619186 0.0378767 -0.0489823
0.611198 0.581137 0.0563805 0.0323829 -0.0461532
0.62231 0.588373 0.0516632 0.0297724 -0.0422218
0.633422 0.595609 0.0470343 0.0271863 -0.0383814
0.644534 0.602845 0.0425709 0.0246595 -0.0347015
0.655636 0.609706 0.0379743 0.0205819 -0.0319129
0.666728 0.616193 0.0340806 0.0185157 -0.0286121
0.67782 0.62268 0.0304449 0.0165771 -0.025536
0.688912 0.629167 0.0270867 0.0147686 -0.0227064
0.699987 0.635315 0.02385 0.0121278 -0.0205363
0.711046 0.641124 0.0211235 0.0107552 -0.0181804
0.722105 0.646933 0.0186559 0.00951116 -0.0160493
0.733163 0.652741 0.0164376 0.00838399 -0.0141387
0.744197 0.658245 0.0143876 0.00682578 -0.0126654
0.755207 0.663444 0.0126619 0.00600857 -0.0111454
0.766217 0.668644 0.011128 0.00528296 -0.00979406
0.777227 0.673843 0.00976995 0.00463648 -0.0085997
0.788206 0.678769 0.00854716 0.0037646 -0.00767344
0.799156 0.683423 0.0075137 0.00330721 -0.0067467
0.810105 0.688077 0.00660369 0.00290554 -0.00593014
0.821055 0.692731 0.0058043 0.00255072 -0.0052138
0.831968 0.697142 0.00509662 0.00207496 -0.00465511
0.842847 0.701311 0.00449505 0.00182687 -0.00410707
0.853725 0.705479 0.00396847 0.00161032 -0.00362707
0.864603 0.709647 0.00350879 0.00142006 -0.00320859
0.875442 0.7136 0.00310801 0.00116229 -0.0028825
0.88624 0.717336 0.00276712 0.00103057 -0.00256805
0.897039 0.721073 0.00247223 0.000916601 -0.00229603
0.907837 0.724809 0.00221887 0.000817529 -0.00206277
0.918591 0.728354 0.00200445 0.000678299 -0.00188619
0.9293 0.731706 0.0018258 0.000611738 -0.00172027
0.940008 0.735059 0.00167759 0.000555621 -0.00158291
0.950717 0.738411 0.00155781 0.000508604 -0.00147244
0.961379 0.741593 0.00146667 0.000433794 -0.00140105
0.971992 0.744605 0.00139999 0.000405671 -0.00133993
0.982606 0.747616 0.00135721 0.000384497 -0.00130161
0.99322 0.750627 0.001338 0.000369879 -0.00128586
0.134907 0.0232241 0.00850737 0.00737226 -0.00424561
0.144942 0.0407421 0.00874017 0.00755345 -0.00439726
0.154977 0.05826 0.00905986 0.00780737 -0.00459632
0.165011 0.075778 0.00948016 0.00814397 -0.00485275
0.175223 0.092834 0.00970696 0.00810769 -0.00533765
0.185613 0.109428 0.0103151 0.00859548 -0.00570254
0.196002 0.126022 0.0110481 0.00918237 -0.00614361
0.206391 0.142616 0.0119324 0.00988972 -0.00667642
0.216857 0.158852 0.0127336 0.010325 -0.00745238
0.227398 0.17473 0.0139118 0.0112635 -0.00816522
0.237939 0.190608 0.0152858 0.0123544 -0.00900141
0.24848 0.206486 0.0168971 0.013632 -0.00998391
0.259087 0.221923 0.0183581 0.0144063 -0.011379
0.269759 0.236919 0.0204116 0.0160117 -0.0126593
0.280432 0.251915 0.0227606 0.0178426 -0.0141311
0.291104 0.266911 0.0254597 0.0199463 -0.0158222
0.301834 0.281412 0.0278622 0.0211063 -0.0181886
0.312622 0.295418 0.0311494 0.0236211 -0.0203058
0.32341 0.309424 0.034814 0.0264196 -0.0226719
0.334197 0.32343 0.0389006 0.0295466 -0.0253032
0.345034 0.336914 0.0423696 0.0309582 -0.028927
0.355921 0.349878 0.0469892 0.0344337 -0.0319735
0.366807 0.362842 0.0519104 0.0381359 -0.0352186
0.377694 0.375805 0.0571253 0.0420752 -0.0386391
0.388621 0.388242 0.0611106 0.0431237 -0.0432996
0.39959 0.400151 0.0663147 0.0470242 -0.0467586
0.410558 0.41206 0.0714562 0.0508867 -0.0501651
0.421527 0.423969 0.076469 0.0546774 -0.0534593
0.432528 0.435359 0.0794623 0.0542576 -0.058055
0.443561 0.44623 0.0835045 0.0573797 -0.0606677
0.454593 0.457102 0.0869653 0.0600887 -0.0628674
0.465626 0.467973 0.0897938 0.0623514 -0.0646161
0.476682 0.478344 0.0900881 0.0595648 -0.0675863
0.487762 0.488215 0.0912247 0.060742 -0.0680614
0.498841 0.498086 0.0914908 0.0612936 -0.067924
0.509921 0.507957 0.0909285 0.0612384 -0.0672149
0.521015 0.517354 0.0879916 0.0562697 -0.0676479
0.532125 0.526277 0.0858512 0.0552857 -0.0656805
0.543235 0.5352 0.0829976 0.0537769 -0.063219
0.554345 0.544123 0.0795511 0.0518053 -0.0603704
0.565461 0.552603 0.0744724 0.0459292 -0.0586229
0.576583 0.560641 0.0702548 0.0436024 -0.0550869
0.587706 0.568679 0.0657468 0.0410349 -0.0513691
0.598829 0.576716 0.0610699 0.0382849 -0.0475795
0.609949 0.584345 0.055611 0.0329286 -0.044814
0.621068 0.591565 0.0510179 0.030364 -0.0409982
0.632187 0.598785 0.046506 0.0278083 -0.0372761
0.643306 0.606005 0.0421434 0.0252853 -0.0337152
0.654415 0.612852 0.0375923 0.0212458 -0.0310128
0.665514 0.619326 0.0337785 0.019159 -0.0278195
0.676612 0.625799 0.0302132 0.0171949 -0.0248429
0.687711 0.632273 0.0269119 0.0153483 -0.0221061
0.698793 0.638408 0.0236915 0.0126917 -0.0200053
0.709859 0.644205 0.0210056 0.0112741 -0.0177238
0.720924 0.650003 0.0185719 0.00998737 -0.0156579
0.731989 0.6558 0.0163793 0.00881439 -0.0138054
0.74303 0.661293 0.0143304 0.00722577 -0.0123753
0.754047 0.666482 0.0126218 0.00636627 -0.0108986
0.765064 0.671671 0.0111016 0.00560307 -0.00958393
0.77608 0.67686 0.0097533 0.00491984 -0.00842153
0.787067 0.681777 0.00852676 0.0040213 -0.00751896
0.798024 0.686422 0.00749965 0.00353319 -0.00661524
0.80898 0.691066 0.00659459 0.00310495 -0.0058179
0.819937 0.695711 0.00579852 0.00272518 -0.00511823
0.830858 0.700114 0.00508712 0.00223073 -0.00457193
0.841744 0.704274 0.00448783 0.00196269 -0.00403589
0.85263 0.708434 0.00396302 0.00172903 -0.00356595
0.863516 0.712594 0.00350449 0.00152293 -0.00315628
0.874362 0.716538 0.00310124 0.00125297 -0.00283685
0.885168 0.720267 0.00276125 0.00110864 -0.00252892
0.895975 0.723996 0.00246706 0.000983729 -0.00226244
0.906781 0.727725 0.00221413 0.000874476 -0.00203413
0.917543 0.731262 0.00199834 0.000727066 -0.00186139
0.92826 0.734608 0.00182012 0.000652136 -0.00169928
0.938978 0.737954 0.00167225 0.000588502 -0.00156527
0.949695 0.741299 0.0015527 0.000534322 -0.00145786
0.960365 0.744474 0.00146107 0.000453274 -0.00138899
0.970988 0.747479 0.00139474 0.00041875 -0.00133039
0.98161 0.750484 0.00135229 0.000391433 -0.0012944
0.992233 0.753488 0.00133343 0.000370723 -0.00128086
0.132739 0.0289471 0.00851809 0.00735483 -0.00429702
0.142825 0.046339 0.00873774 0.00751518 -0.00445759
0.152911 0.0637308 0.00904266 0.00774547 -0.00466664
0.162996 0.0811226 0.00944532 0.00805422 -0.00493392
0.173254 0.098062 0.00966154 0.00799497 -0.00542456
0.183683 0.114549 0.0102528 0.00845411 -0.0058007
0.194113 0.131036 0.0109676 0.00900873 -0.00625547
0.204542 0.147523 0.01183 0.00967778 -0.00680364
0.215043 0.163661 0.0126167 0.010079 -0.0075891
0.225616 0.179451 0.013772 0.0109761 -0.00831822
0.236189 0.195241 0.0151201 0.0120189 -0.00917407
0.246763 0.211031 0.0166999 0.0132399 -0.010178
0.257398 0.226388 0.0181413 0.0139585 -0.0115873
0.268096 0.241312 0.0201592 0.0155011 -0.0128884
0.278794 0.256236 0.0224665 0.0172582 -0.014384
0.289492 0.27116 0.0251146 0.0192765 -0.0160984
0.300245 0.285596 0.0274857 0.0203502 -0.0184752
0.311053 0.299543 0.0307121 0.0227732 -0.0206061
0.32186 0.313489 0.0343047 0.0254661 -0.0229846
0.332668 0.327436 0.0383046 0.028476 -0.0256195
0.343524 0.340867 0.0417189 0.0297776 -0.0292191
0.354427 0.353782 0.046238 0.0331444 -0.0322398
0.36533 0.366697 0.051046 0.0367292 -0.0354494
0.376233 0.379612 0.056132 0.0405483 -0.0388154
0.387176 0.392004 0.060038 0.0415157 -0.0433705
0.398158 0.403873 0.0651121 0.0453433 -0.0467287
0.40914 0.415742 0.070122 0.0491392 -0.0500243
0.420122 0.427611 0.0749985 0.0528747 -0.0531887
0.431135 0.438965 0.0779199 0.0524886 -0.0575887
0.442179 0.449803 0.0818588 0.0556414 -0.0600409
0.453223 0.460641 0.085236 0.058399 -0.0620865
0.464267 0.471479 0.087993 0.0607246 -0.0636811
0.475334 0.48182 0.0882732 0.0581254 -0.0664348
0.486423 0.491664 0.0893989 0.059446 -0.0667708
0.497512 0.501508 0.0896862 0.0601528 -0.0665226
0.508601 0.511352 0.089162 0.06025 -0.0657252
0.519704 0.520724 0.0862858 0.0555563 -0.0660208
0.530822 0.529624 0.0842362 0.0547538 -0.0640137
0.54194 0.538525 0.0814973 0.053421 -0.0615468
0.553058 0.547425 0.0781711 0.051601 -0.0587202
0.564183 0.555885 0.0731912 0.0459678 -0.0569554
0.575313 0.563904 0.0691114 0.0437704 -0.0534841
0.586443 0.571922 0.0647477 0.0413168 -0.0498517
0.597573 0.579941 0.0602056 0.0386485 -0.0461629
0.608701 0.587553 0.0548339 0.0334321 -0.0434632
0.619827 0.594757 0.0503633 0.0309109 -0.0397615
0.630952 0.601962 0.0459677 0.0283862 -0.036156
0.642078 0.609166 0.0417056 0.0258699 -0.0327125
0.653194 0.615998 0.0372057 0.0218727 -0.0300973
0.664299 0.622458 0.033471 0.0197668 -0.0270107
0.675405 0.628919 0.0299758 0.0177799 -0.0241335
0.68651 0.635379 0.0267312 0.0158987 -0.0214893
0.697599 0.641502 0.0235305 0.0132305 -0.0194586
0.708671 0.647287 0.0208847 0.0117703 -0.017252
0.719743 0.653073 0.0184849 0.0104435 -0.015252
0.730815 0.658858 0.0163179 0.00922749 -0.0134584
0.741863 0.664341 0.0142717 0.00761142 -0.0120726
0.752887 0.669519 0.01258 0.00671143 -0.0106402
0.763911 0.674698 0.0110736 0.00591239 -0.00936311
0.774934 0.679877 0.00973498 0.00519404 -0.00823358
0.785928 0.684784 0.00850549 0.00427057 -0.00735565
0.796892 0.68942 0.0074846 0.00375276 -0.00647581
0.807856 0.694056 0.0065845 0.0032989 -0.00569851
0.818819 0.698691 0.00579171 0.00289502 -0.00501625
0.829748 0.703085 0.00507693 0.00238278 -0.00448304
0.840642 0.707237 0.00447982 0.00209529 -0.00395962
0.851535 0.711389 0.00395676 0.00184498 -0.00350028
0.862429 0.715541 0.00349929 0.00162343 -0.00309992
0.873282 0.719477 0.00309368 0.00134175 -0.00278758
0.884097 0.723198 0.00275448 0.00118502 -0.00248654
0.894911 0.72692 0.0024609 0.00104939 -0.00222594
0.905725 0.730641 0.0022083 0.000930158 -0.00200284
0.916495 0.734171 0.00199111 0.000774792 -0.00183418
0.927221 0.73751 0.00181317 0.0006916 -0.00167609
0.937947 0.740848 0.00166551 0.00062055 -0.00154559
0.948673 0.744187 0.00154609 0.000559301 -0.00144137
0.959351 0.747355 0.00145391 0.000472137 -0.00137511
0.969983 0.750353 0.00138782 0.000431258 -0.00131911
0.980615 0.753352 0.00134565 0.000397844 -0.00128549
0.991246 0.75635 0.00132709 0.00037108 -0.00127416
0.130572 0.0346701 0.00852258 0.00733146 -0.00434559
0.140708 0.0519358 0.00872903 0.00747071 -0.00451492
0.150845 0.0692016 0.00901917 0.0076771 -0.00473366
0.160981 0.0864673 0.00940452 0.00795811 -0.00501134
0.171285 0.10329 0.00961128 0.00787662 -0.00550777
0.181754 0.11967 0.0101853 0.00830598 -0.00589503
0.192223 0.13605 0.0108817 0.00882746 -0.00636303
0.202693 0.152429 0.0117226 0.00945794 -0.00692577
0.21323 0.16847 0.0124961 0.00982571 -0.00772069
0.223835 0.184172 0.0136281 0.0106798 -0.00846566
0.23444 0.199874 0.0149502 0.0116734 -0.00934025
0.245045 0.215576 0.0164989 0.0128373 -0.0103642
0.255709 0.230853 0.0179226 0.013501 -0.0117873
0.266432 0.245705 0.0199046 0.0149789 -0.0131082
0.277156 0.260558 0.02217 0.0166612 -0.0146259
0.287879 0.27541 0.0247674 0.0185941 -0.0163611
0.298655 0.28978 0.0271101 0.0195834 -0.0187469
0.309483 0.303667 0.030275 0.0219134 -0.0208896
0.320311 0.317555 0.0337953 0.0245006 -0.0232775
0.33114 0.331443 0.0377089 0.0273953 -0.0259124
0.342014 0.34482 0.0410722 0.028592 -0.029486
0.352933 0.357686 0.0454892 0.0318501 -0.0324783
0.363853 0.370552 0.0501828 0.0353192 -0.0356492
0.374773 0.383419 0.0551395 0.0390226 -0.0389564
0.38573 0.395766 0.0589701 0.0399168 -0.0434065
0.396726 0.407595 0.0639108 0.043671 -0.0466629
0.407721 0.419424 0.068786 0.0474018 -0.0498455
0.418717 0.431253 0.0735248 0.0510866 -0.0528778
0.429743 0.44257 0.0763781 0.0507413 -0.057087
0.440798 0.453376 0.0802086 0.05392 -0.0593806
0.451853 0.464181 0.0834976 0.0567234 -0.0612723
0.462908 0.474986 0.086181 0.0591124 -0.0627128
0.473985 0.485297 0.0864516 0.0567028 -0.0652585
0.485084 0.495113 0.0875613 0.0581564 -0.0654585
0.496182 0.50493 0.0878655 0.0590108 -0.0651005
0.507281 0.514746 0.0873779 0.0592566 -0.0642149
0.518393 0.524093 0.0845686 0.0548359 -0.0643807
0.52952 0.532971 0.0826059 0.0542033 -0.0623358
0.540646 0.541849 0.0799793 0.0530387 -0.059863
0.551772 0.550727 0.0767726 0.0513664 -0.0570572
0.562904 0.559166 0.0718987 0.0459743 -0.0552791
0.574042 0.567166 0.0679547 0.0438991 -0.0518721
0.58518 0.575166 0.063734 0.0415555 -0.0483235
0.596317 0.583166 0.0593265 0.0389685 -0.0447335
0.607452 0.590761 0.0540486 0.0338934 -0.0421009
0.618585 0.597949 0.0496995 0.0314141 -0.0385122
0.629718 0.605138 0.0454198 0.0289209 -0.0350219
0.64085 0.612327 0.0412582 0.0264139 -0.0316945
0.651973 0.619144 0.036814 0.0224627 -0.0291668
0.663085 0.625591 0.0331579 0.0203395 -0.0261868
0.674197 0.632038 0.0297328 0.0183325 -0.0234085
0.68531 0.638484 0.026545 0.01642 -0.0208571
0.696405 0.644595 0.0233666 0.0137441 -0.018897
0.707484 0.650369 0.0207607 0.0122438 -0.0167659
0.718563 0.656143 0.0183947 0.0108796 -0.0148324
0.729642 0.661917 0.0162534 0.00962316 -0.0130984
0.740696 0.667388 0.0142115 0.00798251 -0.0117578
0.751727 0.672557 0.0125365 0.00704389 -0.0103705
0.762757 0.677725 0.0110439 0.00621071 -0.00913203
0.773788 0.682894 0.00971501 0.00545891 -0.00803627
0.784789 0.687792 0.00848332 0.0045122 -0.00718379
0.79576 0.692418 0.00746856 0.00396574 -0.00632868
0.806731 0.697045 0.00657343 0.00348719 -0.00557221
0.817702 0.701672 0.00578389 0.00306008 -0.00490809
0.828638 0.706057 0.00506608 0.00253093 -0.00438858
0.839539 0.7102 0.00447106 0.00222453 -0.00387838
0.85044 0.714344 0.0039497 0.00195803 -0.0034302
0.861341 0.718487 0.00349323 0.00172147 -0.00303961
0.872203 0.722416 0.00308537 0.0014285 -0.00273475
0.883025 0.72613 0.00274683 0.00125965 -0.00244097
0.893847 0.729843 0.00245377 0.00111352 -0.00218657
0.904669 0.733557 0.00220139 0.000984511 -0.00196897
0.915447 0.73708 0.00198276 0.00082142 -0.00180461
0.926182 0.740411 0.00180497 0.000730087 -0.00165073
0.936916 0.743743 0.00165742 0.000651728 -0.00152391
0.94765 0.747075 0.001538 0.000583514 -0.001423
0.958338 0.750236 0.00144518 0.000490361 -0.00135944
0.968978 0.753228 0.00137925 0.000443184 -0.0013061
0.979619 0.75622 0.00133729 0.000403725 -0.00127489
0.99026 0.759211 0.00131902 0.000370954 -0.00126578
0.128404 0.0403931 0.0085208 0.00730216 -0.00439118
0.138591 0.0575327 0.00871401 0.00742008 -0.00456908
0.148779 0.0746723 0.00898942 0.00760237 -0.00479725
0.158967 0.0918119 0.0093579 0.0078558 -0.00508496
0.169315 0.108518 0.00955588 0.00775244 -0.005587
0.179825 0.124791 0.0101126 0.00815112 -0.0059853
0.190334 0.141063 0.0107907 0.00863878 -0.00646609
0.200844 0.157336 0.0116104 0.00923047 -0.00704276
0.211417 0.173279 0.0123718 0.00956495 -0.00784682
0.222054 0.188893 0.0134804 0.0103748 -0.00860724
0.23269 0.204508 0.0147766 0.0113183 -0.00949972
0.243327 0.220122 0.0162947 0.0124246 -0.0105426
0.25402 0.235319 0.0177021 0.0130339 -0.0119785
0.264769 0.250099 0.0196482 0.0144457 -0.0133182
0.275517 0.264879 0.0218719 0.0160521 -0.0148563
0.286266 0.279659 0.0244194 0.0178999 -0.0166102
0.297065 0.293964 0.0267356 0.0188062 -0.0190032
0.307914 0.307792 0.0298387 0.0210423 -0.0211558
0.318762 0.321621 0.0332866 0.0235242 -0.0235502
0.329611 0.335449 0.0371144 0.0263057 -0.0261818
0.340503 0.348773 0.0404291 0.0274012 -0.0297268
0.35144 0.36159 0.0447427 0.0305511 -0.0326886
0.362376 0.374408 0.0493208 0.0339066 -0.0358173
0.373312 0.387226 0.0541481 0.0374986 -0.0390624
0.384285 0.399529 0.057905 0.0383259 -0.0434064
0.395294 0.411318 0.0627094 0.0420071 -0.0465604
0.406303 0.423107 0.0674472 0.0456745 -0.0496283
0.417312 0.434896 0.0720472 0.0493125 -0.0525269
0.42835 0.446176 0.0748332 0.0490133 -0.0565482
0.439417 0.456948 0.0785514 0.0522143 -0.0586854
0.450483 0.467721 0.0817485 0.0550613 -0.0604242
0.46155 0.478493 0.0843571 0.0575138 -0.0617113
0.472637 0.488773 0.0846197 0.0552941 -0.0640551
0.483745 0.498563 0.0857098 0.056872 -0.064123
0.494853 0.508352 0.0860278 0.0578671 -0.0636568
0.505961 0.518141 0.0855761 0.0582578 -0.0626841
0.517082 0.527463 0.0828374 0.0541064 -0.0627259
0.528217 0.536319 0.0809597 0.0536339 -0.0606455
0.539352 0.545174 0.0784433 0.0526302 -0.0581672
0.550486 0.554029 0.0753563 0.0511021 -0.0553818
0.561626 0.562448 0.0705937 0.0459482 -0.0535932
0.572771 0.570429 0.0667846 0.0439891 -0.0502507
0.583916 0.57841 0.062706 0.041752 -0.0467848
0.595062 0.586391 0.0584334 0.0392459 -0.0432924
0.606204 0.593969 0.0532546 0.0343126 -0.040727
0.617343 0.601141 0.0490264 0.0318743 -0.0372508
0.628483 0.608314 0.0448624 0.0294132 -0.0338747
0.639623 0.615487 0.0408015 0.0269179 -0.0306625
0.650752 0.62229 0.0364172 0.0230159 -0.028222
0.661871 0.628724 0.0328392 0.0208775 -0.0253484
0.67299 0.635157 0.0294842 0.0188529 -0.022669
0.684109 0.64159 0.0263532 0.0169124 -0.0202104
0.695211 0.647688 0.0231998 0.0142325 -0.0183212
0.706297 0.653451 0.0206335 0.0126946 -0.0162662
0.717382 0.659213 0.0183014 0.0112954 -0.0143998
0.728468 0.664975 0.0161859 0.0100013 -0.0127262
0.739529 0.670436 0.0141497 0.00833884 -0.0114314
0.750567 0.675594 0.0124913 0.00736347 -0.0100902
0.761604 0.680753 0.0110125 0.00649787 -0.00889114
0.772642 0.685911 0.0096934 0.00571426 -0.00783002
0.783649 0.690799 0.00846026 0.00474596 -0.0070037
0.794628 0.695417 0.00745152 0.00417195 -0.00617414
0.805606 0.700034 0.00656139 0.00366966 -0.00543925
0.816584 0.704652 0.00577509 0.0032202 -0.00479396
0.827528 0.709028 0.00505459 0.00267504 -0.00428871
0.838436 0.713163 0.00446156 0.00235028 -0.00379233
0.849345 0.717299 0.00394187 0.00206807 -0.00335581
0.860254 0.721434 0.00348635 0.00181693 -0.00297546
0.871123 0.725355 0.00307631 0.00151314 -0.00267846
0.881953 0.729061 0.00273834 0.00133243 -0.00239231
0.892783 0.732767 0.00244572 0.00117604 -0.00214441
0.903613 0.736473 0.00219344 0.00103748 -0.00193257
0.9144 0.739988 0.00197333 0.000866894 -0.00177271
0.925142 0.743313 0.00179556 0.000767552 -0.00162324
0.935885 0.746638 0.001648 0.000682004 -0.00150025
0.946628 0.749962 0.00152846 0.000606936 -0.00140278
0.957324 0.753117 0.00143491 0.000507925 -0.001342
0.967974 0.756102 0.00136904 0.000454517 -0.00129139
0.978623 0.759088 0.00132724 0.000409073 -0.00126263
0.989273 0.762073 0.00130923 0.00037035 -0.00125575
0.126236 0.0461161 0.00851271 0.00726697 -0.00443367
0.136475 0.0631296 0.00869266 0.00736334 -0.00461991
0.146713 0.0801431 0.00895344 0.00752136 -0.00485729
0.156952 0.0971566 0.0093056 0.00774746 -0.00515471
0.167346 0.113746 0.00949509 0.00762225 -0.00566199
0.177895 0.129912 0.0100347 0.0079896 -0.0060713
0.188445 0.146077 0.0106946 0.00844286 -0.00656447
0.198994 0.162243 0.0114938 0.00899564 -0.00715449
0.209604 0.178089 0.0122435 0.00929669 -0.00796718
0.220272 0.193615 0.0133291 0.0100613 -0.00874269
0.230941 0.209141 0.0145997 0.0109537 -0.00965224
0.241609 0.224667 0.0160881 0.0120025 -0.0107129
0.252331 0.239784 0.0174802 0.012557 -0.0121605
0.263105 0.254492 0.0193906 0.0139017 -0.013518
0.273879 0.2692 0.021573 0.0154317 -0.015075
0.284653 0.283909 0.0240713 0.0171947 -0.0168455
0.295475 0.298148 0.0263625 0.0180187 -0.0192434
0.306344 0.311917 0.0294038 0.0201605 -0.0214042
0.317213 0.325687 0.0327795 0.0225374 -0.0238025
0.328082 0.339456 0.0365221 0.025208 -0.0264276
0.338993 0.352725 0.0397892 0.0262053 -0.029941
0.349946 0.365494 0.0439986 0.029248 -0.03287
0.360899 0.378263 0.0484601 0.0324919 -0.0359536
0.371851 0.391032 0.053158 0.0359769 -0.0391335
0.382839 0.403291 0.0568408 0.0367421 -0.0433693
0.393862 0.41504 0.0615067 0.0403513 -0.0464203
0.404885 0.426789 0.0661046 0.043957 -0.049372
0.415907 0.438538 0.0705648 0.0475523 -0.0521361
0.426958 0.449782 0.0732821 0.0473024 -0.0559709
0.438035 0.460521 0.0768851 0.0505233 -0.0579544
0.449113 0.47126 0.0799873 0.0534118 -0.0595412
0.460191 0.481999 0.0825203 0.055928 -0.0606766
0.471288 0.49225 0.0827743 0.0538968 -0.0628229
0.482406 0.502012 0.0838428 0.0555917 -0.0627628
0.493524 0.511774 0.0841721 0.0567211 -0.0621905
0.504641 0.521536 0.0837565 0.0572533 -0.0611328
0.515771 0.530833 0.0810903 0.0533664 -0.0610546
0.526914 0.539666 0.0792967 0.0530455 -0.0589418
0.538057 0.548499 0.0768894 0.0521958 -0.0564587
0.5492 0.557332 0.0739228 0.0508085 -0.0536943
0.560348 0.565729 0.0692754 0.0458892 -0.0518967
0.571501 0.573692 0.065601 0.044041 -0.0486197
0.582653 0.581654 0.0616642 0.041907 -0.0452358
0.593806 0.589617 0.0575272 0.0394813 -0.0418402
0.604955 0.597176 0.0524517 0.0346901 -0.0393419
0.616102 0.604334 0.0483444 0.0322921 -0.0359778
0.627248 0.611491 0.0442958 0.0298638 -0.032715
0.638395 0.618648 0.0403361 0.0273826 -0.0296175
0.649531 0.625436 0.0360152 0.0235327 -0.0272636
0.660657 0.631856 0.0325151 0.0213812 -0.0244965
0.671783 0.638276 0.0292301 0.0193414 -0.0219159
0.682908 0.644696 0.0261563 0.0173763 -0.0195503
0.694017 0.650781 0.0230301 0.0146957 -0.0177319
0.705109 0.656532 0.0205032 0.0131227 -0.0157536
0.716202 0.662283 0.0182051 0.0116911 -0.013955
0.727294 0.668034 0.0161154 0.0103619 -0.0123424
0.738362 0.673483 0.0140863 0.00868027 -0.0110939
0.749407 0.678632 0.0124444 0.00767 -0.00979973
0.760451 0.68378 0.0109794 0.00677369 -0.00864089
0.771495 0.688928 0.00967021 0.00595994 -0.00761524
0.78251 0.693806 0.00843631 0.00497169 -0.00681569
0.793496 0.698415 0.00743352 0.00437121 -0.00601247
0.804481 0.703023 0.00654839 0.00384614 -0.00529987
0.815467 0.707632 0.00576535 0.00337523 -0.00467408
0.826418 0.712 0.00504247 0.00281495 -0.00418361
0.837334 0.716127 0.00445136 0.0024724 -0.0037016
0.84825 0.720254 0.00393331 0.00217497 -0.00327726
0.859166 0.724381 0.00347867 0.00190972 -0.0029076
0.870044 0.728293 0.00306656 0.00159555 -0.00261878
0.880881 0.731992 0.00272904 0.00140328 -0.00234061
0.891719 0.735691 0.00243677 0.00123688 -0.00209952
0.902557 0.739389 0.0021845 0.00108899 -0.00189371
0.913352 0.742897 0.00196285 0.000911163 -0.00173855
0.924103 0.746215 0.00178497 0.000803955 -0.00159367
0.934854 0.749532 0.00163727 0.000711344 -0.00147466
0.945606 0.75285 0.0015175 0.000629542 -0.00138075
0.956311 0.755998 0.00142312 0.000524812 -0.00132282
0.966969 0.758977 0.00135723 0.000465248 -0.001275
0.977628 0.761955 0.00131552 0.000413885 -0.00124871
0.988286 0.764934 0.00129773 0.000369273 -0.00124408
0.124068 0.0518391 0.00855244 0.00727209 -0.00450123
0.134358 0.0687265 0.00872223 0.00734938 -0.00469722
0.144647 0.0856138 0.00897238 0.00748629 -0.00494562
0.154937 0.102501 0.00931369 0.00768957 -0.00525503
0.165376 0.118974 0.00950228 0.00754742 -0.0057732
0.175966 0.135033 0.0100311 0.00788797 -0.00619694
0.186556 0.151091 0.0106803 0.00831246 -0.00670611
0.197145 0.167149 0.0114684 0.0088336 -0.0073138
0.20779 0.182898 0.0122178 0.00910889 -0.00814267
0.218491 0.198336 0.0132914 0.00983635 -0.00893914
0.229191 0.213774 0.0145492 0.0106874 -0.00987218
0.239892 0.229212 0.0160236 0.0116907 -0.0109581
0.250642 0.244249 0.0174193 0.0122029 -0.0124307
0.261441 0.258886 0.0193127 0.0134942 -0.0138162
0.272241 0.273522 0.0214749 0.014964 -0.0154028
0.283041 0.288158 0.0239488 0.0166621 -0.0172023
0.293885 0.302331 0.0262442 0.0174222 -0.0196271
0.304775 0.316042 0.0292519 0.0194914 -0.021812
0.315664 0.329752 0.0325858 0.0217879 -0.0242306
0.326554 0.343463 0.0362774 0.0243763 -0.0268672
0.337483 0.356678 0.0395363 0.0252989 -0.0303823
0.348452 0.369398 0.0436775 0.028263 -0.0333006
0.359421 0.382119 0.0480591 0.0314259 -0.0363605
0.370391 0.394839 0.0526662 0.0348376 -0.0394978
0.381394 0.407054 0.0563172 0.0355617 -0.0436692
0.39243 0.418763 0.0608787 0.0391256 -0.0466413
0.403466 0.430471 0.0653679 0.0426955 -0.0494981
0.414502 0.44218 0.0697186 0.0462741 -0.0521478
0.425565 0.453388 0.0723982 0.0460776 -0.0558422
0.436654 0.464094 0.0759036 0.0493294 -0.0576885
0.447743 0.4748 0.0789215 0.0522666 -0.0591339
0.458832 0.485506 0.0813864 0.0548518 -0.060125
0.46994 0.495726 0.0816403 0.0529875 -0.0621085
0.481067 0.505461 0.08268 0.054789 -0.0619205
0.492194 0.515196 0.0830061 0.0560385 -0.0612348
0.503321 0.52493 0.0826088 0.0566966 -0.0600809
0.51446 0.534203 0.0800012 0.0530336 -0.0598968
0.525612 0.543013 0.078262 0.0528386 -0.0577324
0.536763 0.551823 0.0759294 0.052116 -0.0552196
0.547914 0.560634 0.0730479 0.0508439 -0.0524489
0.55907 0.569011 0.0684884 0.046115 -0.0506366
0.57023 0.576954 0.0649089 0.0443503 -0.0473942