Variables = x, y, ugrad, ux, uy
ZONE I= 50 J= 50 F=point
0.01 0.01 0.0374274 -2.57067e-05 -0.0374274
0.03 0.01 0.0375305 -7.69006e-05 -0.0375304
0.05 0.01 0.0377358 -0.000127445 -0.0377356
0.07 0.01 0.0380417 -0.000176901 -0.0380413
0.09 0.01 0.0384454 -0.000224799 -0.0384448
0.11 0.01 0.0389434 -0.000270635 -0.0389425
0.13 0.01 0.0395311 -0.000313869 -0.0395299
0.15 0.01 0.0402027 -0.000353913 -0.0402012
0.17 0.01 0.0409512 -0.00039014 -0.0409493
0.19 0.01 0.0417683 -0.000421879 -0.0417661
0.21 0.01 0.0426443 -0.000448433 -0.042642
0.23 0.01 0.0435682 -0.000469085 -0.0435657
0.25 0.01 0.0445274 -0.000483127 -0.0445248
0.27 0.01 0.0455079 -0.000489883 -0.0455053
0.29 0.01 0.0464945 -0.000488746 -0.046492
0.31 0.01 0.0474708 -0.000479218 -0.0474684
0.33 0.01 0.0484194 -0.000460953 -0.0484173
0.35 0.01 0.0493226 -0.000433799 -0.0493207
0.37 0.01 0.0501624 -0.000397836 -0.0501608
0.39 0.01 0.0509213 -0.000353415 -0.0509201
0.41 0.01 0.0515827 -0.00030117 -0.0515819
0.43 0.01 0.0521318 -0.000242024 -0.0521312
0.45 0.01 0.0525556 -0.000177177 -0.0525553
0.47 0.01 0.052844 -0.000108067 -0.0528439
0.49 0.01 0.05299 -3.63191e-05 -0.05299
0.51 0.01 0.05299 3.63211e-05 -0.05299
0.53 0.01 0.052844 0.000108069 -0.0528439
0.55 0.01 0.0525556 0.000177179 -0.0525553
0.57 0.01 0.0521318 0.000242026 -0.0521312
0.59 0.01 0.0515827 0.000301172 -0.0515818
0.61 0.01 0.0509213 0.000353417 -0.05092
0.63 0.01 0.0501624 0.000397839 -0.0501608
0.65 0.01 0.0493226 0.000433801 -0.0493207
0.67 0.01 0.0484194 0.000460956 -0.0484172
0.69 0.01 0.0474708 0.000479221 -0.0474684
0.71 0.01 0.0464945 0.000488748 -0.0464919
0.73 0.01 0.0455079 0.000489885 -0.0455053
0.75 0.01 0.0445273 0.000483129 -0.0445247
0.77 0.01 0.0435682 0.000469087 -0.0435656
0.79 0.01 0.0426443 0.000448435 -0.0426419
0.81 0.01 0.0417682 0.000421882 -0.0417661
0.83 0.01 0.0409511 0.000390142 -0.0409493
0.85 0.01 0.0402026 0.000353916 -0.0402011
0.87 0.01 0.039531 0.000313872 -0.0395298
0.89 0.01 0.0389434 0.000270639 -0.0389424
0.91 0.01 0.0384453 0.000224803 -0.0384447
0.93 0.01 0.0380416 0.000176906 -0.0380411
0.95 0.01 0.0377357 0.000127451 -0.0377355
0.97 0.01 0.0375303 7.69099e-05 -0.0375303
0.99 0.01 0.0374272 2.57122e-05 -0.0374272
0.01 0.03 0.0373244 -7.73353e-05 -0.0373244
0.03 0.03 0.037429 -0.000231347 -0.0374282
0.05 0.03 0.0376371 -0.000383421 -0.0376352
0.07 0.03 0.0379472 -0.000532256 -0.0379434
0.09 0.03 0.0383565 -0.00067645 -0.0383505
0.11 0.03 0.0388614 -0.000814497 -0.0388529
0.13 0.03 0.0394573 -0.000944776 -0.039446
0.15 0.03 0.0401383 -0.00106553 -0.0401242
0.17 0.03 0.0408974 -0.00117486 -0.0408806
0.19 0.03 0.0417263 -0.00127076 -0.0417069
0.21 0.03 0.0426152 -0.0013511 -0.0425937
0.23 0.03 0.0435528 -0.00141373 -0.0435298
0.25 0.03 0.0445265 -0.00145649 -0.0445026
0.27 0.03 0.0455221 -0.00147731 -0.0454981
0.29 0.03 0.0465242 -0.00147435 -0.0465008
0.31 0.03 0.0475161 -0.00144606 -0.0474941
0.33 0.03 0.0484802 -0.00139136 -0.0484603
0.35 0.03 0.0493984 -0.00130978 -0.0493811
0.37 0.03 0.0502524 -0.00120152 -0.0502381
0.39 0.03 0.0510244 -0.00106762 -0.0510132
0.41 0.03 0.0516973 -0.00090999 -0.0516893
0.43 0.03 0.0522561 -0.000731409 -0.052251
0.45 0.03 0.0526874 -0.00053551 -0.0526847
0.47 0.03 0.052981 -0.000326657 -0.05298
0.49 0.03 0.0531297 -0.000109788 -0.0531296
0.51 0.03 0.0531297 0.000109794 -0.0531295
0.53 0.03 0.052981 0.000326663 -0.05298
0.55 0.03 0.0526874 0.000535516 -0.0526847
0.57 0.03 0.0522561 0.000731415 -0.0522509
0.59 0.03 0.0516973 0.000909996 -0.0516893
0.61 0.03 0.0510243 0.00106763 -0.0510132
0.63 0.03 0.0502524 0.00120153 -0.050238
0.65 0.03 0.0493984 0.00130978 -0.049381
0.67 0.03 0.0484802 0.00139137 -0.0484602
0.69 0.03 0.0475161 0.00144606 -0.0474941
0.71 0.03 0.0465242 0.00147435 -0.0465008
0.73 0.03 0.0455221 0.00147732 -0.0454981
0.75 0.03 0.0445264 0.0014565 -0.0445026
0.77 0.03 0.0435527 0.00141374 -0.0435298
0.79 0.03 0.0426151 0.00135111 -0.0425937
0.81 0.03 0.0417262 0.00127076 -0.0417069
0.83 0.03 0.0408974 0.00117487 -0.0408805
0.85 0.03 0.0401382 0.00106554 -0.0401241
0.87 0.03 0.0394572 0.000944786 -0.0394459
0.89 0.03 0.0388613 0.000814508 -0.0388528
0.91 0.03 0.0383564 0.000676462 -0.0383504
0.93 0.03 0.0379471 0.000532271 -0.0379433
0.95 0.03 0.037637 0.000383439 -0.037635
0.97 0.03 0.0374288 0.000231369 -0.0374281
0.99 0.03 0.0373243 7.73472e-05 -0.0373242
0.01 0.05 0.0371178 -0.000129596 -0.0371176
0.03 0.05 0.0372251 -0.000387705 -0.0372231
0.05 0.05 0.0374389 -0.000642632 -0.0374334
0.07 0.05 0.0377574 -0.000892245 -0.0377468
0.09 0.05 0.0381778 -0.00113423 -0.038161
0.11 0.05 0.0386966 -0.0013661 -0.0386725
0.13 0.05 0.0393089 -0.00158517 -0.039277
0.15 0.05 0.0400089 -0.0017885 -0.0399689
0.17 0.05 0.0407894 -0.00197292 -0.0407417
0.19 0.05 0.041642 -0.00213505 -0.0415872
0.21 0.05 0.0425566 -0.0022713 -0.0424959
0.23 0.05 0.0435218 -0.00237799 -0.0434568
0.25 0.05 0.0445247 -0.00245144 -0.0444572
0.27 0.05 0.0455508 -0.00248809 -0.0454828
0.29 0.05 0.0465842 -0.00248472 -0.0465179
0.31 0.05 0.0476077 -0.00243864 -0.0475452
0.33 0.05 0.0486032 -0.00234791 -0.0485465
0.35 0.05 0.0495518 -0.0022116 -0.0495025
0.37 0.05 0.0504347 -0.00202997 -0.0503938
0.39 0.05 0.0512331 -0.00180469 -0.0512013
0.41 0.05 0.0519296 -0.00153893 -0.0519068
0.43 0.05 0.052508 -0.0012374 -0.0524934
0.45 0.05 0.0529548 -0.000906241 -0.052947
0.47 0.05 0.0532589 -0.000552911 -0.053256
0.49 0.05 0.0534129 -0.00018585 -0.0534126
0.51 0.05 0.0534129 0.00018586 -0.0534126
0.53 0.05 0.0532589 0.000552921 -0.053256
0.55 0.05 0.0529547 0.000906251 -0.052947
0.57 0.05 0.052508 0.00123741 -0.0524934
0.59 0.05 0.0519296 0.00153894 -0.0519068
0.61 0.05 0.0512331 0.0018047 -0.0512013
0.63 0.05 0.0504347 0.00202998 -0.0503938
0.65 0.05 0.0495518 0.00221161 -0.0495024
0.67 0.05 0.0486032 0.00234792 -0.0485464
0.69 0.05 0.0476077 0.00243865 -0.0475452
0.71 0.05 0.0465842 0.00248473 -0.0465179
0.73 0.05 0.0455508 0.0024881 -0.0454828
0.75 0.05 0.0445247 0.00245145 -0.0444571
0.77 0.05 0.0435217 0.002378 -0.0434567
0.79 0.05 0.0425565 0.00227131 -0.0424958
0.81 0.05 0.0416419 0.00213506 -0.0415871
0.83 0.05 0.0407894 0.00197294 -0.0407416
0.85 0.05 0.0400089 0.00178851 -0.0399689
0.87 0.05 0.0393089 0.00158519 -0.0392769
0.89 0.05 0.0386965 0.00136612 -0.0386724
0.91 0.05 0.0381778 0.00113425 -0.0381609
0.93 0.05 0.0377573 0.000892268 -0.0377467
0.95 0.05 0.0374388 0.000642659 -0.0374333
0.97 0.05 0.037225 0.000387735 -0.037223
0.99 0.05 0.0371177 0.000129612 -0.0371174
0.01 0.07 0.0368057 -0.000182893 -0.0368053
0.03 0.07 0.0369173 -0.000547196 -0.0369133
0.05 0.07 0.0371396 -0.000907151 -0.0371285
0.07 0.07 0.0374708 -0.00125984 -0.0374496
0.09 0.07 0.037908 -0.0016021 -0.0378741
0.11 0.07 0.0384476 -0.00193047 -0.0383991
0.13 0.07 0.0390847 -0.00224123 -0.0390204
0.15 0.07 0.0398133 -0.00253026 -0.0397328
0.17 0.07 0.040626 -0.00279311 -0.0405299
0.19 0.07 0.0415142 -0.00302496 -0.0414039
0.21 0.07 0.0424677 -0.00322069 -0.0423454
0.23 0.07 0.0434746 -0.003375 -0.0433434
0.25 0.07 0.0445217 -0.00348252 -0.0443853
0.27 0.07 0.0455938 -0.00353804 -0.0454564
0.29 0.07 0.0466746 -0.00353676 -0.0465404
0.31 0.07 0.0477459 -0.00347462 -0.0476193
0.33 0.07 0.0487889 -0.0033486 -0.0486739
0.35 0.07 0.0497837 -0.00315714 -0.0496835
0.37 0.07 0.0507103 -0.0029004 -0.0506273
0.39 0.07 0.051549 -0.00258057 -0.0514844
0.41 0.07 0.052281 -0.00220209 -0.0522346
0.43 0.07 0.0528894 -0.00177164 -0.0528597
0.45 0.07 0.0533595 -0.00129809 -0.0533437
0.47 0.07 0.0536796 -0.000792225 -0.0536738
0.49 0.07 0.0538418 -0.000266333 -0.0538411
0.51 0.07 0.0538418 0.000266346 -0.0538411
0.53 0.07 0.0536796 0.000792239 -0.0536738
0.55 0.07 0.0533595 0.0012981 -0.0533437
0.57 0.07 0.0528894 0.00177165 -0.0528597
0.59 0.07 0.052281 0.0022021 -0.0522346
0.61 0.07 0.051549 0.00258059 -0.0514843
0.63 0.07 0.0507103 0.00290041 -0.0506273
0.65 0.07 0.0497837 0.00315716 -0.0496835
0.67 0.07 0.0487889 0.00334862 -0.0486738
0.69 0.07 0.0477459 0.00347463 -0.0476193
0.71 0.07 0.0466745 0.00353677 -0.0465403
0.73 0.07 0.0455938 0.00353805 -0.0454563
0.75 0.07 0.0445216 0.00348253 -0.0443852
0.77 0.07 0.0434746 0.00337502 -0.0433434
0.79 0.07 0.0424676 0.00322071 -0.0423453
0.81 0.07 0.0415142 0.00302497 -0.0414038
0.83 0.07 0.040626 0.00279313 -0.0405298
0.85 0.07 0.0398132 0.00253028 -0.0397327
0.87 0.07 0.0390847 0.00224125 -0.0390203
0.89 0.07 0.0384475 0.0019305 -0.038399
0.91 0.07 0.0379079 0.00160212 -0.0378741
0.93 0.07 0.0374707 0.00125987 -0.0374495
0.95 0.07 0.0371395 0.000907185 -0.0371284
0.97 0.07 0.0369172 0.00054723 -0.0369132
0.99 0.07 0.0368056 0.00018291 -0.0368052
0.01 0.09 0.0363858 -0.0002376 -0.0363851
0.03 0.09 0.0365032 -0.000710958 -0.0364962
0.05 0.09 0.0367368 -0.00117892 -0.0367179
0.07 0.09 0.0370849 -0.00163786 -0.0370488
0.09 0.09 0.0375447 -0.00208379 -0.0374869
0.11 0.09 0.0381123 -0.00251238 -0.0380294
0.13 0.09 0.0387826 -0.00291887 -0.0386726
0.15 0.09 0.0395495 -0.00329799 -0.0394118
0.17 0.09 0.0404055 -0.00364397 -0.0402408
0.19 0.09 0.0413416 -0.00395051 -0.0411524
0.21 0.09 0.0423472 -0.00421084 -0.0421373
0.23 0.09 0.0434101 -0.00441788 -0.0431848
0.25 0.09 0.0445166 -0.00456438 -0.0442819
0.27 0.09 0.0456507 -0.00464321 -0.0454139
0.29 0.09 0.0467952 -0.00464772 -0.0465638
0.31 0.09 0.047931 -0.00457214 -0.0477124
0.33 0.09 0.049038 -0.00441208 -0.0488391
0.35 0.09 0.050095 -0.00416503 -0.0499216
0.37 0.09 0.0510806 -0.00383081 -0.0509368
0.39 0.09 0.0519736 -0.00341202 -0.0518614
0.41 0.09 0.0527536 -0.00291431 -0.0526731
0.43 0.09 0.0534024 -0.00234646 -0.0533508
0.45 0.09 0.0539039 -0.00172029 -0.0538765
0.47 0.09 0.0542456 -0.00105033 -0.0542355
0.49 0.09 0.0544188 -0.000353175 -0.0544176
0.51 0.09 0.0544188 0.000353193 -0.0544176
0.53 0.09 0.0542456 0.00105034 -0.0542355
0.55 0.09 0.0539039 0.00172031 -0.0538765
0.57 0.09 0.0534024 0.00234648 -0.0533508
0.59 0.09 0.0527536 0.00291433 -0.052673
0.61 0.09 0.0519735 0.00341204 -0.0518614
0.63 0.09 0.0510806 0.00383083 -0.0509368
0.65 0.09 0.050095 0.00416505 -0.0499216
0.67 0.09 0.049038 0.0044121 -0.0488391
0.69 0.09 0.047931 0.00457216 -0.0477124
0.71 0.09 0.0467951 0.00464774 -0.0465637
0.73 0.09 0.0456506 0.00464323 -0.0454139
0.75 0.09 0.0445165 0.0045644 -0.0442819
0.77 0.09 0.0434101 0.0044179 -0.0431847
0.79 0.09 0.0423471 0.00421086 -0.0421372
0.81 0.09 0.0413415 0.00395053 -0.0411523
0.83 0.09 0.0404054 0.003644 -0.0402408
0.85 0.09 0.0395495 0.00329802 -0.0394117
0.87 0.09 0.0387825 0.0029189 -0.0386725
0.89 0.09 0.0381122 0.00251241 -0.0380293
0.91 0.09 0.0375446 0.00208382 -0.0374868
0.93 0.09 0.0370849 0.00163789 -0.0370487
0.95 0.09 0.0367367 0.00117896 -0.0367178
0.97 0.09 0.0365031 0.000710997 -0.0364961
0.99 0.09 0.0363857 0.000237619 -0.036385
0.01 0.11 0.035855 -0.000294055 -0.0358538
0.03 0.11 0.0359795 -0.000880015 -0.0359687
0.05 0.11 0.0362275 -0.00145968 -0.036198
0.07 0.11 0.036597 -0.00202882 -0.0365407
0.09 0.11 0.0370851 -0.00258272 -0.0369951
0.11 0.11 0.0376879 -0.00311624 -0.0375588
0.13 0.11 0.0384 -0.00362363 -0.0382287
0.15 0.11 0.0392152 -0.00409849 -0.0390004
0.17 0.11 0.0401256 -0.0045337 -0.0398686
0.19 0.11 0.0411219 -0.0049214 -0.0408264
0.21 0.11 0.0421932 -0.00525308 -0.041865
0.23 0.11 0.0433268 -0.00551964 -0.0429738
0.25 0.11 0.0445081 -0.0057117 -0.0441401
0.27 0.11 0.0457204 -0.00581988 -0.0453485
0.29 0.11 0.0469453 -0.00583526 -0.0465813
0.31 0.11 0.0481626 -0.00574996 -0.0478181
0.33 0.11 0.0493505 -0.00555776 -0.0490365
0.35 0.11 0.0504861 -0.0052548 -0.0502119
0.37 0.11 0.0515461 -0.00484023 -0.0513184
0.39 0.11 0.0525075 -0.00431684 -0.0523298
0.41 0.11 0.0533482 -0.00369144 -0.0532203
0.43 0.11 0.0540478 -0.00297505 -0.0539659
0.45 0.11 0.0545891 -0.00218278 -0.0545454
0.47 0.11 0.054958 -0.00133338 -0.0549418
0.49 0.11 0.0551449 -0.000448468 -0.0551431
0.51 0.11 0.0551449 0.000448489 -0.0551431
0.53 0.11 0.054958 0.0013334 -0.0549418
0.55 0.11 0.0545891 0.0021828 -0.0545454
0.57 0.11 0.0540478 0.00297507 -0.0539659
0.59 0.11 0.0533482 0.00369146 -0.0532203
0.61 0.11 0.0525075 0.00431686 -0.0523298
0.63 0.11 0.0515461 0.00484025 -0.0513184
0.65 0.11 0.0504861 0.00525482 -0.0502118
0.67 0.11 0.0493504 0.00555779 -0.0490365
0.69 0.11 0.0481626 0.00574999 -0.0478181
0.71 0.11 0.0469453 0.00583528 -0.0465812
0.73 0.11 0.0457204 0.0058199 -0.0453485
0.75 0.11 0.0445081 0.00571172 -0.04414
0.77 0.11 0.0433268 0.00551967 -0.0429738
0.79 0.11 0.0421932 0.0052531 -0.0418649
0.81 0.11 0.0411219 0.00492143 -0.0408263
0.83 0.11 0.0401255 0.00453373 -0.0398686
0.85 0.11 0.0392151 0.00409852 -0.0390003
0.87 0.11 0.0383999 0.00362366 -0.0382286
0.89 0.11 0.0376878 0.00311627 -0.0375587
0.91 0.11 0.0370851 0.00258276 -0.036995
0.93 0.11 0.0365969 0.00202886 -0.0365406
0.95 0.11 0.0362274 0.00145973 -0.0361979
0.97 0.11 0.0359794 0.000880058 -0.0359686
0.99 0.11 0.0358549 0.000294075 -0.0358537
0.01 0.13 0.0352093 -0.000352541 -0.0352076
0.03 0.13 0.0353425 -0.00105523 -0.0353268
0.05 0.13 0.0356079 -0.00175093 -0.0355648
0.07 0.13 0.0360033 -0.00243491 -0.0359209
0.09 0.13 0.0365258 -0.00310188 -0.0363939
0.11 0.13 0.0371711 -0.00374595 -0.0369819
0.13 0.13 0.0379338 -0.00436048 -0.0376824
0.15 0.13 0.0388073 -0.00493796 -0.0384919
0.17 0.13 0.0397835 -0.00546991 -0.0394057
0.19 0.13 0.0408527 -0.00594684 -0.0404176
0.21 0.13 0.0420035 -0.00635831 -0.0415195
0.23 0.13 0.0432226 -0.006693 -0.0427012
0.25 0.13 0.0444944 -0.00693905 -0.0439499
0.27 0.13 0.0458013 -0.00708439 -0.0452501
0.29 0.13 0.0471235 -0.00711736 -0.0465829
0.31 0.13 0.0484392 -0.00702737 -0.0479268
0.33 0.13 0.0497248 -0.00680581 -0.0492569
0.35 0.13 0.0509554 -0.00644692 -0.0505459
0.37 0.13 0.0521053 -0.00594874 -0.0517646
0.39 0.13 0.0531493 -0.00531394 -0.0528829
0.41 0.13 0.0540628 -0.00455041 -0.053871
0.43 0.13 0.0548237 -0.00367156 -0.0547006
0.45 0.13 0.0554126 -0.00269622 -0.055347
0.47 0.13 0.0558142 -0.00164802 -0.0557898
0.49 0.13 0.0560177 -0.000554466 -0.056015
0.51 0.13 0.0560177 0.000554491 -0.056015
0.53 0.13 0.0558142 0.00164805 -0.0557898
0.55 0.13 0.0554126 0.00269624 -0.055347
0.57 0.13 0.0548237 0.00367159 -0.0547006
0.59 0.13 0.0540628 0.00455043 -0.053871
0.61 0.13 0.0531492 0.00531396 -0.0528829
0.63 0.13 0.0521053 0.00594876 -0.0517646
0.65 0.13 0.0509553 0.00644694 -0.0505459
0.67 0.13 0.0497248 0.00680583 -0.0492568
0.69 0.13 0.0484392 0.0070274 -0.0479267
0.71 0.13 0.0471235 0.00711739 -0.0465829
0.73 0.13 0.0458012 0.00708442 -0.04525
0.75 0.13 0.0444943 0.00693908 -0.0439499
0.77 0.13 0.0432225 0.00669303 -0.0427012
0.79 0.13 0.0420035 0.00635834 -0.0415194
0.81 0.13 0.0408527 0.00594688 -0.0404175
0.83 0.13 0.0397835 0.00546994 -0.0394056
0.85 0.13 0.0388073 0.00493799 -0.0384918
0.87 0.13 0.0379338 0.00436052 -0.0376823
0.89 0.13 0.037171 0.00374599 -0.0369818
0.91 0.13 0.0365257 0.00310192 -0.0363938
0.93 0.13 0.0360033 0.00243496 -0.0359208
0.95 0.13 0.0356078 0.00175098 -0.0355647
0.97 0.13 0.0353425 0.00105527 -0.0353267
0.99 0.13 0.0352092 0.000352561 -0.0352075
0.01 0.15 0.0344447 -0.000413269 -0.0344422
0.03 0.15 0.0345882 -0.00123726 -0.0345661
0.05 0.15 0.034874 -0.00205381 -0.0348135
0.07 0.15 0.0353 -0.00285786 -0.0351842
0.09 0.15 0.0358629 -0.00364367 -0.0356774
0.11 0.15 0.0365583 -0.00440474 -0.036292
0.13 0.15 0.0373806 -0.00513364 -0.0370264
0.15 0.15 0.0383226 -0.00582181 -0.0378779
0.17 0.15 0.0393762 -0.0064594 -0.0388427
0.19 0.15 0.040531 -0.00703522 -0.0399157
0.21 0.15 0.0417751 -0.00753671 -0.0410896
0.23 0.15 0.0430944 -0.00795007 -0.0423547
0.25 0.15 0.0444724 -0.00826055 -0.0436985
0.27 0.15 0.0458902 -0.00845287 -0.045105
0.29 0.15 0.0473265 -0.00851198 -0.0465547
0.31 0.15 0.0487574 -0.0084239 -0.0480242
0.33 0.15 0.0501571 -0.00817688 -0.0494861
0.35 0.15 0.0514983 -0.00776256 -0.0509099
0.37 0.15 0.0527528 -0.00717728 -0.0522623
0.39 0.15 0.0538925 -0.00642319 -0.0535084
0.41 0.15 0.0548905 -0.00550912 -0.0546133
0.43 0.15 0.0557221 -0.00445105 -0.055544
0.45 0.15 0.0563659 -0.003272 -0.0562709
0.47 0.15 0.056805 -0.00200136 -0.0567698
0.49 0.15 0.0570276 -0.000673584 -0.0570236
0.51 0.15 0.0570276 0.000673613 -0.0570236
0.53 0.15 0.056805 0.00200139 -0.0567698
0.55 0.15 0.0563659 0.00327202 -0.0562709
0.57 0.15 0.0557221 0.00445107 -0.055544
0.59 0.15 0.0548905 0.00550915 -0.0546133
0.61 0.15 0.0538925 0.00642322 -0.0535084
0.63 0.15 0.0527528 0.00717731 -0.0522623
0.65 0.15 0.0514983 0.00776259 -0.0509099
0.67 0.15 0.0501571 0.00817691 -0.0494861
0.69 0.15 0.0487573 0.00842393 -0.0480241
0.71 0.15 0.0473264 0.00851201 -0.0465547
0.73 0.15 0.0458902 0.0084529 -0.045105
0.75 0.15 0.0444724 0.00826058 -0.0436984
0.77 0.15 0.0430943 0.00795011 -0.0423547
0.79 0.15 0.0417751 0.00753675 -0.0410896
0.81 0.15 0.0405309 0.00703525 -0.0399157
0.83 0.15 0.0393761 0.00645944 -0.0388427
0.85 0.15 0.0383226 0.00582185 -0.0378778
0.87 0.15 0.0373805 0.00513369 -0.0370263
0.89 0.15 0.0365583 0.00440479 -0.0362919
0.91 0.15 0.0358629 0.00364372 -0.0356773
0.93 0.15 0.0353 0.00285791 -0.0351841
0.95 0.15 0.0348739 0.00205386 -0.0348134
0.97 0.15 0.0345881 0.0012373 -0.034566
0.99 0.15 0.0344446 0.000413291 -0.0344421
0.01 0.17 0.0335565 -0.000476369 -0.0335531
0.03 0.17 0.0337119 -0.0014265 -0.0336817
0.05 0.17 0.0340214 -0.00236903 -0.0339389
0.07 0.17 0.0344828 -0.00329878 -0.0343247
0.09 0.17 0.0350925 -0.00420973 -0.0348391
0.11 0.17 0.0358457 -0.00509495 -0.0354818
0.13 0.17 0.0367366 -0.00594633 -0.0362521
0.15 0.17 0.0377576 -0.00675434 -0.0371486
0.17 0.17 0.0389 -0.00750779 -0.0381687
0.19 0.17 0.0401532 -0.00819372 -0.0393083
0.21 0.17 0.0415043 -0.00879728 -0.0405613
0.23 0.17 0.0429385 -0.00930186 -0.0419188
0.25 0.17 0.044438 -0.00968933 -0.0433688
0.27 0.17 0.0459824 -0.00994062 -0.0448951
0.29 0.17 0.0475486 -0.0100365 -0.0464773
0.31 0.17 0.0491103 -0.00995877 -0.04809
0.33 0.17 0.0506393 -0.00969157 -0.0497033
0.35 0.17 0.0521053 -0.00922309 -0.0512825
0.37 0.17 0.0534772 -0.0085472 -0.0527898
0.39 0.17 0.054724 -0.00766499 -0.0541845
0.41 0.17 0.0558159 -0.00658605 -0.0554259
0.43 0.17 0.0567258 -0.0053291 -0.0564749
0.45 0.17 0.0574302 -0.00392197 -0.0572962
0.47 0.17 0.0579107 -0.0024008 -0.0578609
0.49 0.17 0.0581542 -0.000808344 -0.0581486
0.51 0.17 0.0581542 0.000808376 -0.0581486
0.53 0.17 0.0579107 0.00240084 -0.0578609
0.55 0.17 0.0574302 0.003922 -0.0572961
0.57 0.17 0.0567258 0.00532913 -0.0564749
0.59 0.17 0.0558159 0.00658609 -0.0554259
0.61 0.17 0.054724 0.00766503 -0.0541845
0.63 0.17 0.0534772 0.00854723 -0.0527897
0.65 0.17 0.0521053 0.00922312 -0.0512825
0.67 0.17 0.0506393 0.0096916 -0.0497032
0.69 0.17 0.0491103 0.0099588 -0.04809
0.71 0.17 0.0475485 0.0100365 -0.0464772
0.73 0.17 0.0459824 0.00994066 -0.0448951
0.75 0.17 0.0444379 0.00968937 -0.0433687
0.77 0.17 0.0429384 0.0093019 -0.0419188
0.79 0.17 0.0415043 0.00879732 -0.0405612
0.81 0.17 0.0401531 0.00819376 -0.0393082
0.83 0.17 0.0389 0.00750783 -0.0381686
0.85 0.17 0.0377576 0.00675438 -0.0371485
0.87 0.17 0.0367365 0.00594637 -0.036252
0.89 0.17 0.0358457 0.005095 -0.0354817
0.91 0.17 0.0350924 0.00420978 -0.034839
0.93 0.17 0.0344828 0.00329883 -0.0343246
0.95 0.17 0.0340214 0.00236908 -0.0339388
0.97 0.17 0.0337118 0.00142655 -0.0336816
0.99 0.17 0.0335564 0.00047639 -0.033553
0.01 0.19 0.0325399 -0.000541861 -0.0325354
0.03 0.19 0.0327089 -0.00162303 -0.0326687
0.05 0.19 0.0330457 -0.0026968 -0.0329354
0.07 0.19 0.0335475 -0.00375808 -0.0333363
0.09 0.19 0.0342104 -0.00480079 -0.0338719
0.11 0.19 0.0350295 -0.00581778 -0.034543
0.13 0.19 0.0359982 -0.00680043 -0.03535
0.15 0.19 0.0371087 -0.00773835 -0.0362928
0.17 0.19 0.0383515 -0.00861909 -0.0373704
0.19 0.19 0.0397155 -0.00942783 -0.0385802
0.21 0.19 0.041187 -0.0101473 -0.0399174
0.23 0.19 0.0427499 -0.0107576 -0.0413743
0.25 0.19 0.0443853 -0.0112368 -0.0429393
0.27 0.19 0.0460708 -0.0115613 -0.0445966
0.29 0.19 0.047781 -0.0117069 -0.0463247
0.31 0.19 0.0494872 -0.0116499 -0.0480964
0.33 0.19 0.0511579 -0.0113694 -0.0498785
0.35 0.19 0.0527598 -0.010849 -0.0516323
0.37 0.19 0.0542586 -0.0100792 -0.0533142
0.39 0.19 0.0556201 -0.00905939 -0.0548773
0.41 0.19 0.0568118 -0.0077995 -0.0562739
0.43 0.19 0.0578043 -0.00632125 -0.0574576
0.45 0.19 0.0585722 -0.004658 -0.0583867
0.47 0.19 0.0590957 -0.00285379 -0.0590268
0.49 0.19 0.059361 -0.000961277 -0.0593532
0.51 0.19 0.059361 0.000961312 -0.0593532
0.53 0.19 0.0590957 0.00285382 -0.0590268
0.55 0.19 0.0585722 0.00465803 -0.0583867
0.57 0.19 0.0578043 0.00632129 -0.0574576
0.59 0.19 0.0568118 0.00779954 -0.0562739
0.61 0.19 0.05562 0.00905942 -0.0548773
0.63 0.19 0.0542586 0.0100793 -0.0533141
0.65 0.19 0.0527598 0.0108491 -0.0516323
0.67 0.19 0.0511579 0.0113695 -0.0498785
0.69 0.19 0.0494872 0.0116499 -0.0480963
0.71 0.19 0.047781 0.0117069 -0.0463246
0.73 0.19 0.0460708 0.0115614 -0.0445966
0.75 0.19 0.0443853 0.0112369 -0.0429393
0.77 0.19 0.0427499 0.0107576 -0.0413742
0.79 0.19 0.0411869 0.0101473 -0.0399173
0.81 0.19 0.0397154 0.00942787 -0.0385802
0.83 0.19 0.0383515 0.00861914 -0.0373704
0.85 0.19 0.0371086 0.0077384 -0.0362928
0.87 0.19 0.0359981 0.00680048 -0.0353499
0.89 0.19 0.0350294 0.00581783 -0.0345429
0.91 0.19 0.0342104 0.00480084 -0.0338719
0.93 0.19 0.0335474 0.00375813 -0.0333362
0.95 0.19 0.0330456 0.00269685 -0.0329354
0.97 0.19 0.0327089 0.00162308 -0.0326686
0.99 0.19 0.0325398 0.000541883 -0.0325353
0.01 0.21 0.0313903 -0.000609644 -0.0313844
0.03 0.21 0.0315749 -0.00182657 -0.031522
0.05 0.21 0.0319424 -0.00303668 -0.0317978
0.07 0.21 0.03249 -0.00423525 -0.0322127
0.09 0.21 0.0332131 -0.00541643 -0.0327685
0.11 0.21 0.0341062 -0.00657304 -0.0334668
0.13 0.21 0.0351621 -0.00769618 -0.0343096
0.15 0.21 0.0363725 -0.00877478 -0.0352982
0.17 0.21 0.0377271 -0.00979517 -0.0364333
0.19 0.21 0.0392138 -0.0107407 -0.0377142
0.21 0.21 0.0408182 -0.0115913 -0.0391378
0.23 0.21 0.0425227 -0.0123238 -0.0406977
0.25 0.21 0.0443065 -0.0129117 -0.0423835
0.27 0.21 0.0461454 -0.0133259 -0.0441793
0.29 0.21 0.0480109 -0.0135363 -0.0460632
0.31 0.21 0.0498714 -0.0135126 -0.0480059
0.33 0.21 0.0516921 -0.0132275 -0.049971
0.35 0.21 0.053436 -0.0126587 -0.051915
0.37 0.21 0.0550656 -0.0117922 -0.0537882
0.39 0.21 0.0565437 -0.0106247 -0.0555366
0.41 0.21 0.0578355 -0.00916637 -0.0571044
0.43 0.21 0.0589095 -0.00744197 -0.0584375
0.45 0.21 0.0597393 -0.00549115 -0.0594864
0.47 0.21 0.0603043 -0.00336728 -0.0602102
0.49 0.21 0.0605903 -0.00113476 -0.0605797
0.51 0.21 0.0605903 0.0011348 -0.0605797
0.53 0.21 0.0603043 0.00336732 -0.0602102
0.55 0.21 0.0597393 0.00549119 -0.0594864
0.57 0.21 0.0589095 0.007442 -0.0584375
0.59 0.21 0.0578354 0.00916641 -0.0571044
0.61 0.21 0.0565437 0.0106247 -0.0555365
0.63 0.21 0.0550656 0.0117922 -0.0537881
0.65 0.21 0.053436 0.0126588 -0.051915
0.67 0.21 0.051692 0.0132276 -0.049971
0.69 0.21 0.0498714 0.0135127 -0.0480059
0.71 0.21 0.0480109 0.0135363 -0.0460631
0.73 0.21 0.0461453 0.013326 -0.0441793
0.75 0.21 0.0443065 0.0129117 -0.0423834
0.77 0.21 0.0425226 0.0123239 -0.0406976
0.79 0.21 0.0408181 0.0115914 -0.0391377
0.81 0.21 0.0392138 0.0107407 -0.0377142
0.83 0.21 0.0377271 0.00979522 -0.0364333
0.85 0.21 0.0363725 0.00877483 -0.0352981
0.87 0.21 0.0351621 0.00769623 -0.0343095
0.89 0.21 0.0341061 0.00657309 -0.0334668
0.91 0.21 0.0332131 0.00541648 -0.0327684
0.93 0.21 0.0324899 0.00423531 -0.0322127
0.95 0.21 0.0319424 0.00303674 -0.0317977
0.97 0.21 0.0315748 0.00182662 -0.0315219
0.99 0.21 0.0313902 0.000609666 -0.0313843
0.01 0.23 0.0301034 -0.000679475 -0.0300958
0.03 0.23 0.0303056 -0.00203639 -0.0302371
0.05 0.23 0.0307079 -0.00338752 -0.0305205
0.07 0.23 0.0313069 -0.00472881 -0.0309477
0.09 0.23 0.0320976 -0.00605488 -0.0315213
0.11 0.23 0.0330732 -0.00735885 -0.0322441
0.13 0.23 0.034226 -0.00863179 -0.0331196
0.15 0.23 0.0355465 -0.00986214 -0.034151
0.17 0.23 0.0370237 -0.0110351 -0.035341
0.19 0.23 0.0386444 -0.0121322 -0.0366906
0.21 0.23 0.0403927 -0.0131307 -0.0381989
0.23 0.23 0.0422496 -0.0140033 -0.0398614
0.25 0.23 0.044192 -0.0147185 -0.0416689
0.27 0.23 0.0461928 -0.0152411 -0.043606
0.29 0.23 0.0482206 -0.0155334 -0.0456502
0.31 0.23 0.0502401 -0.0155577 -0.0477705
0.33 0.23 0.0522124 -0.0152785 -0.049927
0.35 0.23 0.0540972 -0.0146662 -0.0520712
0.37 0.23 0.0558535 -0.0137008 -0.054147
0.39 0.23 0.0574415 -0.0123757 -0.0560925
0.41 0.23 0.0588248 -0.0107005 -0.0578434
0.43 0.23 0.0599713 -0.00870318 -0.0593364
0.45 0.23 0.0608546 -0.00643068 -0.0605139
0.47 0.23 0.0614547 -0.00394713 -0.0613278
0.49 0.23 0.0617581 -0.0013308 -0.0617438
0.51 0.23 0.0617581 0.00133084 -0.0617438
0.53 0.23 0.0614547 0.00394717 -0.0613278
0.55 0.23 0.0608546 0.00643072 -0.0605139
0.57 0.23 0.0599713 0.00870322 -0.0593364
0.59 0.23 0.0588248 0.0107005 -0.0578434
0.61 0.23 0.0574415 0.0123757 -0.0560925
0.63 0.23 0.0558535 0.0137009 -0.054147
0.65 0.23 0.0540972 0.0146662 -0.0520712
0.67 0.23 0.0522124 0.0152786 -0.049927
0.69 0.23 0.05024 0.0155578 -0.0477705
0.71 0.23 0.0482206 0.0155335 -0.0456502
0.73 0.23 0.0461928 0.0152411 -0.043606
0.75 0.23 0.044192 0.0147185 -0.0416689
0.77 0.23 0.0422496 0.0140033 -0.0398614
0.79 0.23 0.0403927 0.0131308 -0.0381989
0.81 0.23 0.0386444 0.0121323 -0.0366906
0.83 0.23 0.0370237 0.0110352 -0.0353409
0.85 0.23 0.0355465 0.0098622 -0.034151
0.87 0.23 0.034226 0.00863184 -0.0331196
0.89 0.23 0.0330732 0.00735891 -0.0322441
0.91 0.23 0.0320975 0.00605493 -0.0315212
0.93 0.23 0.0313069 0.00472887 -0.0309477
0.95 0.23 0.0307079 0.00338758 -0.0305204
0.97 0.23 0.0303055 0.00203644 -0.030237
0.99 0.23 0.0301034 0.000679497 -0.0300957
0.01 0.25 0.0286756 -0.00075095 -0.0286657
0.03 0.25 0.0288976 -0.0022513 -0.0288098
0.05 0.25 0.0293392 -0.00374736 -0.0290989
0.07 0.25 0.0299961 -0.00523605 -0.0295356
0.09 0.25 0.030862 -0.00671283 -0.0301231
0.11 0.25 0.0319293 -0.0081714 -0.0308659
0.13 0.25 0.0331886 -0.00960308 -0.0317689
0.15 0.25 0.0346295 -0.0109961 -0.0328373
0.17 0.25 0.0362394 -0.0123347 -0.0340757
0.19 0.25 0.038004 -0.0135987 -0.0354877
0.21 0.25 0.0399055 -0.0147622 -0.0370746
0.23 0.25 0.0419227 -0.0157938 -0.0388339
0.25 0.25 0.04403 -0.0166563 -0.0407579
0.27 0.25 0.0461968 -0.0173073 -0.0428323
0.29 0.25 0.0483878 -0.0177007 -0.0450341
0.31 0.25 0.0505634 -0.0177894 -0.0473306
0.33 0.25 0.0526805 -0.0175283 -0.0496789
0.35 0.25 0.0546947 -0.0168787 -0.0520252
0.37 0.25 0.0565622 -0.0158135 -0.0543067
0.39 0.25 0.0582416 -0.0143211 -0.0564534
0.41 0.25 0.0596962 -0.0124103 -0.0583919
0.43 0.25 0.0608951 -0.0101125 -0.0600496
0.45 0.25 0.0618143 -0.00748256 -0.0613597
0.47 0.25 0.0624362 -0.00459716 -0.0622668
0.49 0.25 0.0627499 -0.00155071 -0.0627307
0.51 0.25 0.0627499 0.00155076 -0.0627307
0.53 0.25 0.0624362 0.0045972 -0.0622668
0.55 0.25 0.0618143 0.0074826 -0.0613597
0.57 0.25 0.0608951 0.0101125 -0.0600496
0.59 0.25 0.0596962 0.0124103 -0.0583919
0.61 0.25 0.0582416 0.0143211 -0.0564534
0.63 0.25 0.0565622 0.0158135 -0.0543067
0.65 0.25 0.0546947 0.0168788 -0.0520252
0.67 0.25 0.0526805 0.0175283 -0.0496789
0.69 0.25 0.0505634 0.0177895 -0.0473306
0.71 0.25 0.0483878 0.0177008 -0.045034
0.73 0.25 0.0461968 0.0173073 -0.0428323
0.75 0.25 0.04403 0.0166563 -0.0407579
0.77 0.25 0.0419227 0.0157938 -0.0388338
0.79 0.25 0.0399055 0.0147622 -0.0370746
0.81 0.25 0.038004 0.0135987 -0.0354877
0.83 0.25 0.0362394 0.0123348 -0.0340756
0.85 0.25 0.0346294 0.0109961 -0.0328372
0.87 0.25 0.0331886 0.00960314 -0.0317689
0.89 0.25 0.0319292 0.00817145 -0.0308659
0.91 0.25 0.030862 0.00671289 -0.0301231
0.93 0.25 0.0299961 0.00523611 -0.0295355
0.95 0.25 0.0293392 0.00374743 -0.0290989
0.97 0.25 0.0288975 0.00225135 -0.0288097
0.99 0.25 0.0286755 0.000750972 -0.0286657
0.01 0.27 0.0271041 -0.000823494 -0.0270916
0.03 0.27 0.0273487 -0.00246957 -0.027237
0.05 0.27 0.0278348 -0.00411334 -0.0275292
0.07 0.27 0.0285568 -0.00575303 -0.0279713
0.09 0.27 0.0295068 -0.00738525 -0.0285676
0.11 0.27 0.0306751 -0.00900464 -0.0293237
0.13 0.27 0.032051 -0.0106031 -0.0302463
0.15 0.27 0.033622 -0.0121689 -0.0313425
0.17 0.27 0.035374 -0.0136856 -0.0326193
0.19 0.27 0.0372905 -0.0151312 -0.0340827
0.21 0.27 0.0393518 -0.0164769 -0.0357363
0.23 0.27 0.041534 -0.0176866 -0.03758
0.25 0.27 0.0438077 -0.0187169 -0.039608
0.27 0.27 0.0461384 -0.0195172 -0.0418071
0.29 0.27 0.0484858 -0.0200318 -0.0441543
0.31 0.27 0.0508052 -0.0202026 -0.0466158
0.33 0.27 0.0530489 -0.0199731 -0.0491453
0.35 0.27 0.0551683 -0.019294 -0.0516844
0.37 0.27 0.0571172 -0.0181291 -0.0541637
0.39 0.27 0.058854 -0.0164609 -0.0565052
0.41 0.27 0.0603441 -0.0142966 -0.0586261
0.43 0.27 0.0615609 -0.011671 -0.0604444
0.45 0.27 0.0624858 -0.00864787 -0.0618845
0.47 0.27 0.0631074 -0.00531816 -0.0628829
0.49 0.27 0.0634195 -0.00179478 -0.0633941
0.51 0.27 0.0634195 0.00179483 -0.0633941
0.53 0.27 0.0631074 0.0053182 -0.0628829
0.55 0.27 0.0624858 0.00864791 -0.0618845
0.57 0.27 0.0615609 0.011671 -0.0604444
0.59 0.27 0.0603441 0.0142966 -0.0586261
0.61 0.27 0.058854 0.0164609 -0.0565052
0.63 0.27 0.0571172 0.0181291 -0.0541637
0.65 0.27 0.0551683 0.0192941 -0.0516844
0.67 0.27 0.0530489 0.0199731 -0.0491452
0.69 0.27 0.0508052 0.0202026 -0.0466157
0.71 0.27 0.0484858 0.0200318 -0.0441543
0.73 0.27 0.0461384 0.0195172 -0.041807
0.75 0.27 0.0438077 0.0187169 -0.039608
0.77 0.27 0.0415339 0.0176867 -0.0375799
0.79 0.27 0.0393518 0.0164769 -0.0357362
0.81 0.27 0.0372905 0.0151312 -0.0340827
0.83 0.27 0.0353739 0.0136857 -0.0326193
0.85 0.27 0.033622 0.012169 -0.0313425
0.87 0.27 0.032051 0.0106032 -0.0302463
0.89 0.27 0.0306751 0.0090047 -0.0293237
0.91 0.27 0.0295067 0.00738531 -0.0285675
0.93 0.27 0.0285568 0.00575309 -0.0279713
0.95 0.27 0.0278348 0.00411341 -0.0275292
0.97 0.27 0.0273487 0.00246963 -0.0272369
0.99 0.27 0.027104 0.000823516 -0.0270915
0.01 0.29 0.0253877 -0.000896355 -0.0253718
0.03 0.29 0.0256582 -0.00268895 -0.0255169
0.05 0.29 0.0261951 -0.00448168 -0.0258089
0.07 0.29 0.0269907 -0.00627441 -0.0262513
0.09 0.29 0.0280346 -0.00806526 -0.0268494
0.11 0.29 0.0293146 -0.00985015 -0.0276101
0.13 0.29 0.0308172 -0.0116219 -0.0285418
0.15 0.29 0.0325277 -0.0133691 -0.0296533
0.17 0.29 0.0344297 -0.0150749 -0.030954
0.19 0.29 0.0365043 -0.0167156 -0.0324523