Variables = x, y, ugrad, ux, uy
ZONE I= 50 J= 50 F=point
0.01 0.01 0.0374273 -2.56994e-05 -0.0374273
0.03 0.01 0.0375304 -7.68857e-05 -0.0375303
0.05 0.01 0.0377357 -0.000127429 -0.0377355
0.07 0.01 0.0380415 -0.000176886 -0.0380411
0.09 0.01 0.0384452 -0.000224784 -0.0384446
0.11 0.01 0.0389432 -0.000270621 -0.0389423
0.13 0.01 0.0395309 -0.000313855 -0.0395297
0.15 0.01 0.0402025 -0.0003539 -0.0402009
0.17 0.01 0.0409509 -0.000390127 -0.040949
0.19 0.01 0.041768 -0.000421868 -0.0417658
0.21 0.01 0.042644 -0.000448422 -0.0426416
0.23 0.01 0.0435679 -0.000469075 -0.0435653
0.25 0.01 0.044527 -0.000483118 -0.0445244
0.27 0.01 0.0455076 -0.000489874 -0.0455049
0.29 0.01 0.0464941 -0.000488738 -0.0464916
0.31 0.01 0.0474704 -0.000479212 -0.047468
0.33 0.01 0.048419 -0.000460947 -0.0484168
0.35 0.01 0.0493222 -0.000433794 -0.0493203
0.37 0.01 0.050162 -0.000397832 -0.0501604
0.39 0.01 0.0509208 -0.000353412 -0.0509196
0.41 0.01 0.0515823 -0.000301167 -0.0515814
0.43 0.01 0.0521313 -0.000242022 -0.0521308
0.45 0.01 0.0525551 -0.000177176 -0.0525548
0.47 0.01 0.0528436 -0.000108066 -0.0528434
0.49 0.01 0.0529896 -3.63197e-05 -0.0529896
0.51 0.01 0.0529896 3.63197e-05 -0.0529896
0.53 0.01 0.0528436 0.000108066 -0.0528434
0.55 0.01 0.0525551 0.000177176 -0.0525548
0.57 0.01 0.0521313 0.000242022 -0.0521308
0.59 0.01 0.0515823 0.000301167 -0.0515814
0.61 0.01 0.0509208 0.000353412 -0.0509196
0.63 0.01 0.050162 0.000397832 -0.0501604
0.65 0.01 0.0493222 0.000433794 -0.0493203
0.67 0.01 0.048419 0.000460947 -0.0484168
0.69 0.01 0.0474704 0.000479212 -0.047468
0.71 0.01 0.0464941 0.000488738 -0.0464916
0.73 0.01 0.0455076 0.000489874 -0.0455049
0.75 0.01 0.044527 0.000483118 -0.0445244
0.77 0.01 0.0435679 0.000469075 -0.0435653
0.79 0.01 0.042644 0.000448422 -0.0426416
0.81 0.01 0.041768 0.000421868 -0.0417658
0.83 0.01 0.0409509 0.000390127 -0.040949
0.85 0.01 0.0402025 0.0003539 -0.0402009
0.87 0.01 0.0395309 0.000313855 -0.0395297
0.89 0.01 0.0389432 0.000270621 -0.0389423
0.91 0.01 0.0384452 0.000224784 -0.0384446
0.93 0.01 0.0380415 0.000176886 -0.0380411
0.95 0.01 0.0377357 0.000127429 -0.0377355
0.97 0.01 0.0375304 7.68857e-05 -0.0375303
0.99 0.01 0.0374273 2.56994e-05 -0.0374273
0.01 0.03 0.0373244 -7.73102e-05 -0.0373243
0.03 0.03 0.0374289 -0.000231298 -0.0374282
0.05 0.03 0.037637 -0.000383374 -0.0376351
0.07 0.03 0.037947 -0.00053221 -0.0379433
0.09 0.03 0.0383563 -0.000676405 -0.0383503
0.11 0.03 0.0388612 -0.000814454 -0.0388527
0.13 0.03 0.0394571 -0.000944735 -0.0394458
0.15 0.03 0.0401381 -0.00106549 -0.0401239
0.17 0.03 0.0408972 -0.00117482 -0.0408803
0.19 0.03 0.041726 -0.00127072 -0.0417067
0.21 0.03 0.0426148 -0.00135107 -0.0425934
0.23 0.03 0.0435524 -0.0014137 -0.0435295
0.25 0.03 0.0445261 -0.00145646 -0.0445023
0.27 0.03 0.0455217 -0.00147729 -0.0454978
0.29 0.03 0.0465238 -0.00147432 -0.0465005
0.31 0.03 0.0475157 -0.00144604 -0.0474937
0.33 0.03 0.0484798 -0.00139135 -0.0484598
0.35 0.03 0.049398 -0.00130976 -0.0493806
0.37 0.03 0.050252 -0.00120151 -0.0502376
0.39 0.03 0.0510239 -0.00106761 -0.0510127
0.41 0.03 0.0516969 -0.000909982 -0.0516889
0.43 0.03 0.0522556 -0.000731403 -0.0522505
0.45 0.03 0.052687 -0.000535507 -0.0526842
0.47 0.03 0.0529806 -0.000326656 -0.0529796
0.49 0.03 0.0531292 -0.00010979 -0.0531291
0.51 0.03 0.0531292 0.00010979 -0.0531291
0.53 0.03 0.0529806 0.000326656 -0.0529796
0.55 0.03 0.052687 0.000535507 -0.0526842
0.57 0.03 0.0522556 0.000731403 -0.0522505
0.59 0.03 0.0516969 0.000909982 -0.0516889
0.61 0.03 0.0510239 0.00106761 -0.0510127
0.63 0.03 0.050252 0.00120151 -0.0502376
0.65 0.03 0.049398 0.00130976 -0.0493806
0.67 0.03 0.0484798 0.00139135 -0.0484598
0.69 0.03 0.0475157 0.00144604 -0.0474937
0.71 0.03 0.0465238 0.00147432 -0.0465005
0.73 0.03 0.0455217 0.00147729 -0.0454978
0.75 0.03 0.0445261 0.00145646 -0.0445023
0.77 0.03 0.0435524 0.0014137 -0.0435295
0.79 0.03 0.0426148 0.00135107 -0.0425934
0.81 0.03 0.041726 0.00127072 -0.0417067
0.83 0.03 0.0408972 0.00117482 -0.0408803
0.85 0.03 0.0401381 0.00106549 -0.0401239
0.87 0.03 0.0394571 0.000944735 -0.0394458
0.89 0.03 0.0388612 0.000814454 -0.0388527
0.91 0.03 0.0383563 0.000676405 -0.0383503
0.93 0.03 0.037947 0.00053221 -0.0379433
0.95 0.03 0.037637 0.000383374 -0.0376351
0.97 0.03 0.0374289 0.000231298 -0.0374282
0.99 0.03 0.0373244 7.73102e-05 -0.0373243
0.01 0.05 0.0371178 -0.000129552 -0.0371175
0.03 0.05 0.0372251 -0.000387621 -0.0372231
0.05 0.05 0.0374388 -0.000642552 -0.0374333
0.07 0.05 0.0377573 -0.000892167 -0.0377467
0.09 0.05 0.0381777 -0.00113416 -0.0381608
0.11 0.05 0.0386964 -0.00136603 -0.0386723
0.13 0.05 0.0393087 -0.0015851 -0.0392768
0.15 0.05 0.0400087 -0.00178843 -0.0399687
0.17 0.05 0.0407892 -0.00197286 -0.0407414
0.19 0.05 0.0416417 -0.00213499 -0.0415869
0.21 0.05 0.0425562 -0.00227125 -0.0424956
0.23 0.05 0.0435215 -0.00237794 -0.0434565
0.25 0.05 0.0445244 -0.00245139 -0.0444568
0.27 0.05 0.0455504 -0.00248805 -0.0454824
0.29 0.05 0.0465838 -0.00248468 -0.0465175
0.31 0.05 0.0476073 -0.00243861 -0.0475448
0.33 0.05 0.0486028 -0.00234788 -0.048546
0.35 0.05 0.0495514 -0.00221157 -0.049502
0.37 0.05 0.0504343 -0.00202995 -0.0503934
0.39 0.05 0.0512327 -0.00180467 -0.0512009
0.41 0.05 0.0519291 -0.00153892 -0.0519063
0.43 0.05 0.0525076 -0.00123739 -0.052493
0.45 0.05 0.0529543 -0.000906236 -0.0529465
0.47 0.05 0.0532584 -0.00055291 -0.0532556
0.49 0.05 0.0534124 -0.000185853 -0.0534121
0.51 0.05 0.0534124 0.000185853 -0.0534121
0.53 0.05 0.0532584 0.00055291 -0.0532556
0.55 0.05 0.0529543 0.000906236 -0.0529465
0.57 0.05 0.0525076 0.00123739 -0.052493
0.59 0.05 0.0519291 0.00153892 -0.0519063
0.61 0.05 0.0512327 0.00180467 -0.0512009
0.63 0.05 0.0504343 0.00202995 -0.0503934
0.65 0.05 0.0495514 0.00221157 -0.049502
0.67 0.05 0.0486028 0.00234788 -0.048546
0.69 0.05 0.0476073 0.00243861 -0.0475448
0.71 0.05 0.0465838 0.00248468 -0.0465175
0.73 0.05 0.0455504 0.00248805 -0.0454824
0.75 0.05 0.0445244 0.00245139 -0.0444568
0.77 0.05 0.0435215 0.00237794 -0.0434565
0.79 0.05 0.0425562 0.00227125 -0.0424956
0.81 0.05 0.0416417 0.00213499 -0.0415869
0.83 0.05 0.0407892 0.00197286 -0.0407414
0.85 0.05 0.0400087 0.00178843 -0.0399687
0.87 0.05 0.0393087 0.0015851 -0.0392768
0.89 0.05 0.0386964 0.00136603 -0.0386723
0.91 0.05 0.0381777 0.00113416 -0.0381608
0.93 0.05 0.0377573 0.000892167 -0.0377467
0.95 0.05 0.0374388 0.000642552 -0.0374333
0.97 0.05 0.0372251 0.000387621 -0.0372231
0.99 0.05 0.0371178 0.000129552 -0.0371175
0.01 0.07 0.0368057 -0.00018283 -0.0368053
0.03 0.07 0.0369173 -0.000547074 -0.0369132
0.05 0.07 0.0371395 -0.000907037 -0.0371284
0.07 0.07 0.0374706 -0.00125974 -0.0374494
0.09 0.07 0.0379079 -0.00160199 -0.037874
0.11 0.07 0.0384474 -0.00193037 -0.0383989
0.13 0.07 0.0390845 -0.00224113 -0.0390202
0.15 0.07 0.0398131 -0.00253017 -0.0397326
0.17 0.07 0.0406258 -0.00279302 -0.0405297
0.19 0.07 0.0415139 -0.00302488 -0.0414036
0.21 0.07 0.0424674 -0.00322062 -0.0423451
0.23 0.07 0.0434743 -0.00337493 -0.0433431
0.25 0.07 0.0445213 -0.00348245 -0.0443849
0.27 0.07 0.0455935 -0.00353798 -0.045456
0.29 0.07 0.0466742 -0.00353671 -0.04654
0.31 0.07 0.0477456 -0.00347457 -0.047619
0.33 0.07 0.0487885 -0.00334856 -0.0486735
0.35 0.07 0.0497833 -0.00315711 -0.0496831
0.37 0.07 0.0507099 -0.00290037 -0.0506269
0.39 0.07 0.0515486 -0.00258055 -0.0514839
0.41 0.07 0.0522806 -0.00220207 -0.0522342
0.43 0.07 0.052889 -0.00177163 -0.0528593
0.45 0.07 0.0533591 -0.00129808 -0.0533433
0.47 0.07 0.0536792 -0.000792224 -0.0536733
0.49 0.07 0.0538413 -0.000266337 -0.0538407
0.51 0.07 0.0538413 0.000266337 -0.0538407
0.53 0.07 0.0536792 0.000792224 -0.0536733
0.55 0.07 0.0533591 0.00129808 -0.0533433
0.57 0.07 0.052889 0.00177163 -0.0528593
0.59 0.07 0.0522806 0.00220207 -0.0522342
0.61 0.07 0.0515486 0.00258055 -0.0514839
0.63 0.07 0.0507099 0.00290037 -0.0506269
0.65 0.07 0.0497833 0.00315711 -0.0496831
0.67 0.07 0.0487885 0.00334856 -0.0486735
0.69 0.07 0.0477456 0.00347457 -0.047619
0.71 0.07 0.0466742 0.00353671 -0.04654
0.73 0.07 0.0455935 0.00353798 -0.045456
0.75 0.07 0.0445213 0.00348245 -0.0443849
0.77 0.07 0.0434743 0.00337493 -0.0433431
0.79 0.07 0.0424674 0.00322062 -0.0423451
0.81 0.07 0.0415139 0.00302488 -0.0414036
0.83 0.07 0.0406258 0.00279302 -0.0405297
0.85 0.07 0.0398131 0.00253017 -0.0397326
0.87 0.07 0.0390845 0.00224113 -0.0390202
0.89 0.07 0.0384474 0.00193037 -0.0383989
0.91 0.07 0.0379079 0.00160199 -0.037874
0.93 0.07 0.0374706 0.00125974 -0.0374494
0.95 0.07 0.0371395 0.000907037 -0.0371284
0.97 0.07 0.0369173 0.000547074 -0.0369132
0.99 0.07 0.0368057 0.00018283 -0.0368053
0.01 0.09 0.0363858 -0.000237518 -0.0363851
0.03 0.09 0.0365031 -0.000710801 -0.0364962
0.05 0.09 0.0367367 -0.00117877 -0.0367178
0.07 0.09 0.0370848 -0.00163771 -0.0370486
0.09 0.09 0.0375446 -0.00208365 -0.0374867
0.11 0.09 0.0381121 -0.00251225 -0.0380292
0.13 0.09 0.0387824 -0.00291875 -0.0386724
0.15 0.09 0.0395493 -0.00329788 -0.0394116
0.17 0.09 0.0404052 -0.00364386 -0.0402406
0.19 0.09 0.0413413 -0.0039504 -0.0411521
0.21 0.09 0.0423469 -0.00421074 -0.042137
0.23 0.09 0.0434098 -0.00441779 -0.0431844
0.25 0.09 0.0445162 -0.00456429 -0.0442816
0.27 0.09 0.0456503 -0.00464313 -0.0454136
0.29 0.09 0.0467948 -0.00464765 -0.0465634
0.31 0.09 0.0479306 -0.00457208 -0.0477121
0.33 0.09 0.0490376 -0.00441203 -0.0488387
0.35 0.09 0.0500946 -0.00416499 -0.0499212
0.37 0.09 0.0510802 -0.00383077 -0.0509364
0.39 0.09 0.0519731 -0.00341199 -0.051861
0.41 0.09 0.0527532 -0.00291428 -0.0526726
0.43 0.09 0.0534019 -0.00234644 -0.0533504
0.45 0.09 0.0539035 -0.00172028 -0.053876
0.47 0.09 0.0542452 -0.00105032 -0.054235
0.49 0.09 0.0544183 -0.00035318 -0.0544172
0.51 0.09 0.0544183 0.00035318 -0.0544172
0.53 0.09 0.0542452 0.00105032 -0.054235
0.55 0.09 0.0539035 0.00172028 -0.053876
0.57 0.09 0.0534019 0.00234644 -0.0533504
0.59 0.09 0.0527532 0.00291428 -0.0526726
0.61 0.09 0.0519731 0.00341199 -0.051861
0.63 0.09 0.0510802 0.00383077 -0.0509364
0.65 0.09 0.0500946 0.00416499 -0.0499212
0.67 0.09 0.0490376 0.00441203 -0.0488387
0.69 0.09 0.0479306 0.00457208 -0.0477121
0.71 0.09 0.0467948 0.00464765 -0.0465634
0.73 0.09 0.0456503 0.00464313 -0.0454136
0.75 0.09 0.0445162 0.00456429 -0.0442816
0.77 0.09 0.0434098 0.00441779 -0.0431844
0.79 0.09 0.0423469 0.00421074 -0.042137
0.81 0.09 0.0413413 0.0039504 -0.0411521
0.83 0.09 0.0404052 0.00364386 -0.0402406
0.85 0.09 0.0395493 0.00329788 -0.0394116
0.87 0.09 0.0387824 0.00291875 -0.0386724
0.89 0.09 0.0381121 0.00251225 -0.0380292
0.91 0.09 0.0375446 0.00208365 -0.0374867
0.93 0.09 0.0370848 0.00163771 -0.0370486
0.95 0.09 0.0367367 0.00117877 -0.0367178
0.97 0.09 0.0365031 0.000710801 -0.0364962
0.99 0.09 0.0363858 0.000237518 -0.0363851
0.01 0.11 0.035855 -0.000293954 -0.0358538
0.03 0.11 0.0359794 -0.000879822 -0.0359687
0.05 0.11 0.0362274 -0.0014595 -0.036198
0.07 0.11 0.0365969 -0.00202864 -0.0365406
0.09 0.11 0.037085 -0.00258256 -0.0369949
0.11 0.11 0.0376877 -0.00311608 -0.0375586
0.13 0.11 0.0383998 -0.00362348 -0.0382285
0.15 0.11 0.0392149 -0.00409835 -0.0390002
0.17 0.11 0.0401253 -0.00453356 -0.0398684
0.19 0.11 0.0411216 -0.00492128 -0.0408261
0.21 0.11 0.0421929 -0.00525296 -0.0418647
0.23 0.11 0.0433265 -0.00551953 -0.0429735
0.25 0.11 0.0445078 -0.0057116 -0.0441398
0.27 0.11 0.0457201 -0.00581979 -0.0453481
0.29 0.11 0.046945 -0.00583518 -0.0465809
0.31 0.11 0.0481622 -0.00574989 -0.0478178
0.33 0.11 0.0493501 -0.0055577 -0.0490361
0.35 0.11 0.0504857 -0.00525474 -0.0502115
0.37 0.11 0.0515457 -0.00484019 -0.051318
0.39 0.11 0.0525071 -0.0043168 -0.0523294
0.41 0.11 0.0533477 -0.00369141 -0.0532199
0.43 0.11 0.0540474 -0.00297503 -0.0539655
0.45 0.11 0.0545886 -0.00218276 -0.054545
0.47 0.11 0.0549576 -0.00133337 -0.0549414
0.49 0.11 0.0551445 -0.000448474 -0.0551427
0.51 0.11 0.0551445 0.000448474 -0.0551427
0.53 0.11 0.0549576 0.00133337 -0.0549414
0.55 0.11 0.0545886 0.00218276 -0.054545
0.57 0.11 0.0540474 0.00297503 -0.0539655
0.59 0.11 0.0533477 0.00369141 -0.0532199
0.61 0.11 0.0525071 0.0043168 -0.0523294
0.63 0.11 0.0515457 0.00484019 -0.051318
0.65 0.11 0.0504857 0.00525474 -0.0502115
0.67 0.11 0.0493501 0.0055577 -0.0490361
0.69 0.11 0.0481622 0.00574989 -0.0478178
0.71 0.11 0.046945 0.00583518 -0.0465809
0.73 0.11 0.0457201 0.00581979 -0.0453481
0.75 0.11 0.0445078 0.0057116 -0.0441398
0.77 0.11 0.0433265 0.00551953 -0.0429735
0.79 0.11 0.0421929 0.00525296 -0.0418647
0.81 0.11 0.0411216 0.00492128 -0.0408261
0.83 0.11 0.0401253 0.00453356 -0.0398684
0.85 0.11 0.0392149 0.00409835 -0.0390002
0.87 0.11 0.0383998 0.00362348 -0.0382285
0.89 0.11 0.0376877 0.00311608 -0.0375586
0.91 0.11 0.037085 0.00258256 -0.0369949
0.93 0.11 0.0365969 0.00202864 -0.0365406
0.95 0.11 0.0362274 0.0014595 -0.036198
0.97 0.11 0.0359794 0.000879822 -0.0359687
0.99 0.11 0.035855 0.000293954 -0.0358538
0.01 0.13 0.0352093 -0.000352421 -0.0352076
0.03 0.13 0.0353425 -0.001055 -0.0353267
0.05 0.13 0.0356078 -0.00175072 -0.0355647
0.07 0.13 0.0360032 -0.00243471 -0.0359208
0.09 0.13 0.0365257 -0.00310169 -0.0363937
0.11 0.13 0.0371709 -0.00374576 -0.0369817
0.13 0.13 0.0379336 -0.0043603 -0.0376822
0.15 0.13 0.0388071 -0.00493779 -0.0384917
0.17 0.13 0.0397833 -0.00546975 -0.0394054
0.19 0.13 0.0408524 -0.0059467 -0.0404173
0.21 0.13 0.0420032 -0.00635817 -0.0415192
0.23 0.13 0.0432222 -0.00669288 -0.0427009
0.25 0.13 0.044494 -0.00693894 -0.0439496
0.27 0.13 0.0458009 -0.00708429 -0.0452497
0.29 0.13 0.0471232 -0.00711726 -0.0465826
0.31 0.13 0.0484389 -0.00702729 -0.0479264
0.33 0.13 0.0497244 -0.00680573 -0.0492565
0.35 0.13 0.050955 -0.00644685 -0.0505455
0.37 0.13 0.0521049 -0.00594868 -0.0517642
0.39 0.13 0.0531488 -0.00531389 -0.0528825
0.41 0.13 0.0540624 -0.00455037 -0.0538706
0.43 0.13 0.0548233 -0.00367154 -0.0547002
0.45 0.13 0.0554122 -0.0026962 -0.0553466
0.47 0.13 0.0558138 -0.00164802 -0.0557894
0.49 0.13 0.0560173 -0.000554473 -0.0560145
0.51 0.13 0.0560173 0.000554473 -0.0560145
0.53 0.13 0.0558138 0.00164802 -0.0557894
0.55 0.13 0.0554122 0.0026962 -0.0553466
0.57 0.13 0.0548233 0.00367154 -0.0547002
0.59 0.13 0.0540624 0.00455037 -0.0538706
0.61 0.13 0.0531488 0.00531389 -0.0528825
0.63 0.13 0.0521049 0.00594868 -0.0517642
0.65 0.13 0.050955 0.00644685 -0.0505455
0.67 0.13 0.0497244 0.00680573 -0.0492565
0.69 0.13 0.0484389 0.00702729 -0.0479264
0.71 0.13 0.0471232 0.00711726 -0.0465826
0.73 0.13 0.0458009 0.00708429 -0.0452497
0.75 0.13 0.044494 0.00693894 -0.0439496
0.77 0.13 0.0432222 0.00669288 -0.0427009
0.79 0.13 0.0420032 0.00635817 -0.0415192
0.81 0.13 0.0408524 0.0059467 -0.0404173
0.83 0.13 0.0397833 0.00546975 -0.0394054
0.85 0.13 0.0388071 0.00493779 -0.0384917
0.87 0.13 0.0379336 0.0043603 -0.0376822
0.89 0.13 0.0371709 0.00374576 -0.0369817
0.91 0.13 0.0365257 0.00310169 -0.0363937
0.93 0.13 0.0360032 0.00243471 -0.0359208
0.95 0.13 0.0356078 0.00175072 -0.0355647
0.97 0.13 0.0353425 0.001055 -0.0353267
0.99 0.13 0.0352093 0.000352421 -0.0352076
0.01 0.15 0.0344447 -0.000413131 -0.0344422
0.03 0.15 0.0345881 -0.00123699 -0.034566
0.05 0.15 0.0348739 -0.00205356 -0.0348134
0.07 0.15 0.0352999 -0.00285762 -0.035184
0.09 0.15 0.0358628 -0.00364345 -0.0356772
0.11 0.15 0.0365581 -0.00440453 -0.0362918
0.13 0.15 0.0373803 -0.00513344 -0.0370262
0.15 0.15 0.0383224 -0.00582162 -0.0378776
0.17 0.15 0.0393759 -0.00645922 -0.0388425
0.19 0.15 0.0405307 -0.00703505 -0.0399155
0.21 0.15 0.0417748 -0.00753655 -0.0410893
0.23 0.15 0.0430941 -0.00794993 -0.0423544
0.25 0.15 0.0444721 -0.00826041 -0.0436982
0.27 0.15 0.0458899 -0.00845275 -0.0451047
0.29 0.15 0.0473261 -0.00851187 -0.0465544
0.31 0.15 0.048757 -0.0084238 -0.0480238
0.33 0.15 0.0501567 -0.00817679 -0.0494857
0.35 0.15 0.0514979 -0.00776249 -0.0509095
0.37 0.15 0.0527524 -0.00717722 -0.0522619
0.39 0.15 0.0538921 -0.00642314 -0.053508
0.41 0.15 0.0548901 -0.00550908 -0.0546129
0.43 0.15 0.0557217 -0.00445102 -0.0555436
0.45 0.15 0.0563655 -0.00327198 -0.0562705
0.47 0.15 0.0568046 -0.00200136 -0.0567694
0.49 0.15 0.0570272 -0.000673592 -0.0570232
0.51 0.15 0.0570272 0.000673592 -0.0570232
0.53 0.15 0.0568046 0.00200136 -0.0567694
0.55 0.15 0.0563655 0.00327198 -0.0562705
0.57 0.15 0.0557217 0.00445102 -0.0555436
0.59 0.15 0.0548901 0.00550908 -0.0546129
0.61 0.15 0.0538921 0.00642314 -0.053508
0.63 0.15 0.0527524 0.00717722 -0.0522619
0.65 0.15 0.0514979 0.00776249 -0.0509095
0.67 0.15 0.0501567 0.00817679 -0.0494857
0.69 0.15 0.048757 0.0084238 -0.0480238
0.71 0.15 0.0473261 0.00851187 -0.0465544
0.73 0.15 0.0458899 0.00845275 -0.0451047
0.75 0.15 0.0444721 0.00826041 -0.0436982
0.77 0.15 0.0430941 0.00794993 -0.0423544
0.79 0.15 0.0417748 0.00753655 -0.0410893
0.81 0.15 0.0405307 0.00703505 -0.0399155
0.83 0.15 0.0393759 0.00645922 -0.0388425
0.85 0.15 0.0383224 0.00582162 -0.0378776
0.87 0.15 0.0373803 0.00513344 -0.0370262
0.89 0.15 0.0365581 0.00440453 -0.0362918
0.91 0.15 0.0358628 0.00364345 -0.0356772
0.93 0.15 0.0352999 0.00285762 -0.035184
0.95 0.15 0.0348739 0.00205356 -0.0348134
0.97 0.15 0.0345881 0.00123699 -0.034566
0.99 0.15 0.0344447 0.000413131 -0.0344422
0.01 0.17 0.0335565 -0.000476213 -0.0335531
0.03 0.17 0.0337118 -0.0014262 -0.0336816
0.05 0.17 0.0340214 -0.00236875 -0.0339388
0.07 0.17 0.0344827 -0.00329852 -0.0343246
0.09 0.17 0.0350923 -0.00420948 -0.0348389
0.11 0.17 0.0358455 -0.00509471 -0.0354816
0.13 0.17 0.0367363 -0.0059461 -0.0362519
0.15 0.17 0.0377574 -0.00675412 -0.0371484
0.17 0.17 0.0388998 -0.00750759 -0.0381684
0.19 0.17 0.0401529 -0.00819353 -0.039308
0.21 0.17 0.041504 -0.00879711 -0.040561
0.23 0.17 0.0429381 -0.0093017 -0.0419185
0.25 0.17 0.0444377 -0.00968919 -0.0433685
0.27 0.17 0.0459821 -0.00994049 -0.0448948
0.29 0.17 0.0475482 -0.0100364 -0.0464769
0.31 0.17 0.04911 -0.00995866 -0.0480897
0.33 0.17 0.050639 -0.00969147 -0.0497029
0.35 0.17 0.052105 -0.009223 -0.0512822
0.37 0.17 0.0534768 -0.00854713 -0.0527894
0.39 0.17 0.0547236 -0.00766494 -0.0541841
0.41 0.17 0.0558155 -0.00658601 -0.0554256
0.43 0.17 0.0567254 -0.00532907 -0.0564745
0.45 0.17 0.0574298 -0.00392196 -0.0572958
0.47 0.17 0.0579103 -0.0024008 -0.0578605
0.49 0.17 0.0581538 -0.000808353 -0.0581482
0.51 0.17 0.0581538 0.000808353 -0.0581482
0.53 0.17 0.0579103 0.0024008 -0.0578605
0.55 0.17 0.0574298 0.00392196 -0.0572958
0.57 0.17 0.0567254 0.00532907 -0.0564745
0.59 0.17 0.0558155 0.00658601 -0.0554256
0.61 0.17 0.0547236 0.00766494 -0.0541841
0.63 0.17 0.0534768 0.00854713 -0.0527894
0.65 0.17 0.052105 0.009223 -0.0512822
0.67 0.17 0.050639 0.00969147 -0.0497029
0.69 0.17 0.04911 0.00995866 -0.0480897
0.71 0.17 0.0475482 0.0100364 -0.0464769
0.73 0.17 0.0459821 0.00994049 -0.0448948
0.75 0.17 0.0444377 0.00968919 -0.0433685
0.77 0.17 0.0429381 0.0093017 -0.0419185
0.79 0.17 0.041504 0.00879711 -0.040561
0.81 0.17 0.0401529 0.00819353 -0.039308
0.83 0.17 0.0388998 0.00750759 -0.0381684
0.85 0.17 0.0377574 0.00675412 -0.0371484
0.87 0.17 0.0367363 0.0059461 -0.0362519
0.89 0.17 0.0358455 0.00509471 -0.0354816
0.91 0.17 0.0350923 0.00420948 -0.0348389
0.93 0.17 0.0344827 0.00329852 -0.0343246
0.95 0.17 0.0340214 0.00236875 -0.0339388
0.97 0.17 0.0337118 0.0014262 -0.0336816
0.99 0.17 0.0335565 0.000476213 -0.0335531
0.01 0.19 0.0325399 -0.000541688 -0.0325354
0.03 0.19 0.0327089 -0.0016227 -0.0326686
0.05 0.19 0.0330456 -0.00269649 -0.0329354
0.07 0.19 0.0335473 -0.00375778 -0.0333362
0.09 0.19 0.0342103 -0.00480051 -0.0338718
0.11 0.19 0.0350293 -0.00581751 -0.0345428
0.13 0.19 0.035998 -0.00680018 -0.0353498
0.15 0.19 0.0371084 -0.00773812 -0.0362926
0.17 0.19 0.0383513 -0.00861887 -0.0373702
0.19 0.19 0.0397152 -0.00942762 -0.03858
0.21 0.19 0.0411867 -0.0101471 -0.0399171
0.23 0.19 0.0427496 -0.0107574 -0.041374
0.25 0.19 0.044385 -0.0112367 -0.042939
0.27 0.19 0.0460705 -0.0115612 -0.0445963
0.29 0.19 0.0477807 -0.0117067 -0.0463243
0.31 0.19 0.0494868 -0.0116498 -0.048096
0.33 0.19 0.0511575 -0.0113693 -0.0498782
0.35 0.19 0.0527594 -0.010849 -0.051632
0.37 0.19 0.0542582 -0.0100792 -0.0533138
0.39 0.19 0.0556197 -0.00905932 -0.0548769
0.41 0.19 0.0568114 -0.00779945 -0.0562735
0.43 0.19 0.0578039 -0.00632122 -0.0574572
0.45 0.19 0.0585719 -0.00465798 -0.0583864
0.47 0.19 0.0590954 -0.00285378 -0.0590264
0.49 0.19 0.0593606 -0.000961287 -0.0593528
0.51 0.19 0.0593606 0.000961287 -0.0593528
0.53 0.19 0.0590954 0.00285378 -0.0590264
0.55 0.19 0.0585719 0.00465798 -0.0583864
0.57 0.19 0.0578039 0.00632122 -0.0574572
0.59 0.19 0.0568114 0.00779945 -0.0562735
0.61 0.19 0.0556197 0.00905932 -0.0548769
0.63 0.19 0.0542582 0.0100792 -0.0533138
0.65 0.19 0.0527594 0.010849 -0.051632
0.67 0.19 0.0511575 0.0113693 -0.0498782
0.69 0.19 0.0494868 0.0116498 -0.048096
0.71 0.19 0.0477807 0.0117067 -0.0463243
0.73 0.19 0.0460705 0.0115612 -0.0445963
0.75 0.19 0.044385 0.0112367 -0.042939
0.77 0.19 0.0427496 0.0107574 -0.041374
0.79 0.19 0.0411867 0.0101471 -0.0399171
0.81 0.19 0.0397152 0.00942762 -0.03858
0.83 0.19 0.0383513 0.00861887 -0.0373702
0.85 0.19 0.0371084 0.00773812 -0.0362926
0.87 0.19 0.035998 0.00680018 -0.0353498
0.89 0.19 0.0350293 0.00581751 -0.0345428
0.91 0.19 0.0342103 0.00480051 -0.0338718
0.93 0.19 0.0335473 0.00375778 -0.0333362
0.95 0.19 0.0330456 0.00269649 -0.0329354
0.97 0.19 0.0327089 0.0016227 -0.0326686
0.99 0.19 0.0325399 0.000541688 -0.0325354
0.01 0.21 0.0313903 -0.000609455 -0.0313844
0.03 0.21 0.0315748 -0.0018262 -0.031522
0.05 0.21 0.0319423 -0.00303634 -0.0317977
0.07 0.21 0.0324898 -0.00423493 -0.0322126
0.09 0.21 0.033213 -0.00541612 -0.0327684
0.11 0.21 0.034106 -0.00657275 -0.0334667
0.13 0.21 0.0351619 -0.0076959 -0.0343094
0.15 0.21 0.0363722 -0.00877452 -0.035298
0.17 0.21 0.0377268 -0.00979493 -0.0364331
0.19 0.21 0.0392136 -0.0107404 -0.037714
0.21 0.21 0.0408179 -0.0115911 -0.0391375
0.23 0.21 0.0425224 -0.0123236 -0.0406974
0.25 0.21 0.0443062 -0.0129115 -0.0423832
0.27 0.21 0.046145 -0.0133258 -0.044179
0.29 0.21 0.0480106 -0.0135361 -0.0460629
0.31 0.21 0.0498711 -0.0135125 -0.0480056
0.33 0.21 0.0516917 -0.0132274 -0.0499707
0.35 0.21 0.0534357 -0.0126586 -0.0519146
0.37 0.21 0.0550653 -0.0117921 -0.0537878
0.39 0.21 0.0565434 -0.0106246 -0.0555362
0.41 0.21 0.0578351 -0.00916632 -0.0571041
0.43 0.21 0.0589091 -0.00744193 -0.0584371
0.45 0.21 0.0597389 -0.00549113 -0.059486
0.47 0.21 0.0603039 -0.00336728 -0.0602098
0.49 0.21 0.06059 -0.00113478 -0.0605794
0.51 0.21 0.06059 0.00113478 -0.0605794
0.53 0.21 0.0603039 0.00336728 -0.0602098
0.55 0.21 0.0597389 0.00549113 -0.059486
0.57 0.21 0.0589091 0.00744193 -0.0584371
0.59 0.21 0.0578351 0.00916632 -0.0571041
0.61 0.21 0.0565434 0.0106246 -0.0555362
0.63 0.21 0.0550653 0.0117921 -0.0537878
0.65 0.21 0.0534357 0.0126586 -0.0519146
0.67 0.21 0.0516917 0.0132274 -0.0499707
0.69 0.21 0.0498711 0.0135125 -0.0480056
0.71 0.21 0.0480106 0.0135361 -0.0460629
0.73 0.21 0.046145 0.0133258 -0.044179
0.75 0.21 0.0443062 0.0129115 -0.0423832
0.77 0.21 0.0425224 0.0123236 -0.0406974
0.79 0.21 0.0408179 0.0115911 -0.0391375
0.81 0.21 0.0392136 0.0107404 -0.037714
0.83 0.21 0.0377268 0.00979493 -0.0364331
0.85 0.21 0.0363722 0.00877452 -0.035298
0.87 0.21 0.0351619 0.0076959 -0.0343094
0.89 0.21 0.034106 0.00657275 -0.0334667
0.91 0.21 0.033213 0.00541612 -0.0327684
0.93 0.21 0.0324898 0.00423493 -0.0322126
0.95 0.21 0.0319423 0.00303634 -0.0317977
0.97 0.21 0.0315748 0.0018262 -0.031522
0.99 0.21 0.0313903 0.000609455 -0.0313844
0.01 0.23 0.0301034 -0.00067927 -0.0300958
0.03 0.23 0.0303055 -0.002036 -0.030237
0.05 0.23 0.0307078 -0.00338716 -0.0305204
0.07 0.23 0.0313068 -0.00472846 -0.0309477
0.09 0.23 0.0320974 -0.00605455 -0.0315212
0.11 0.23 0.033073 -0.00735854 -0.032244
0.13 0.23 0.0342258 -0.00863149 -0.0331195
0.15 0.23 0.0355463 -0.00986186 -0.0341509
0.17 0.23 0.0370235 -0.0110349 -0.0353408
0.19 0.23 0.0386441 -0.012132 -0.0366904
0.21 0.23 0.0403925 -0.0131305 -0.0381987
0.23 0.23 0.0422493 -0.0140031 -0.0398612
0.25 0.23 0.0441917 -0.0147183 -0.0416686
0.27 0.23 0.0461925 -0.0152409 -0.0436058
0.29 0.23 0.0482203 -0.0155333 -0.0456499
0.31 0.23 0.0502397 -0.0155576 -0.0477702
0.33 0.23 0.0522121 -0.0152784 -0.0499267
0.35 0.23 0.0540969 -0.0146661 -0.0520709
0.37 0.23 0.0558531 -0.0137007 -0.0541467
0.39 0.23 0.0574412 -0.0123756 -0.0560922
0.41 0.23 0.0588245 -0.0107004 -0.057843
0.43 0.23 0.059971 -0.00870314 -0.0593361
0.45 0.23 0.0608543 -0.00643066 -0.0605136
0.47 0.23 0.0614544 -0.00394712 -0.0613275
0.49 0.23 0.0617578 -0.00133082 -0.0617434
0.51 0.23 0.0617578 0.00133082 -0.0617434
0.53 0.23 0.0614544 0.00394712 -0.0613275
0.55 0.23 0.0608543 0.00643066 -0.0605136
0.57 0.23 0.059971 0.00870314 -0.0593361
0.59 0.23 0.0588245 0.0107004 -0.057843
0.61 0.23 0.0574412 0.0123756 -0.0560922
0.63 0.23 0.0558531 0.0137007 -0.0541467
0.65 0.23 0.0540969 0.0146661 -0.0520709
0.67 0.23 0.0522121 0.0152784 -0.0499267
0.69 0.23 0.0502397 0.0155576 -0.0477702
0.71 0.23 0.0482203 0.0155333 -0.0456499
0.73 0.23 0.0461925 0.0152409 -0.0436058
0.75 0.23 0.0441917 0.0147183 -0.0416686
0.77 0.23 0.0422493 0.0140031 -0.0398612
0.79 0.23 0.0403925 0.0131305 -0.0381987
0.81 0.23 0.0386441 0.012132 -0.0366904
0.83 0.23 0.0370235 0.0110349 -0.0353408
0.85 0.23 0.0355463 0.00986186 -0.0341509
0.87 0.23 0.0342258 0.00863149 -0.0331195
0.89 0.23 0.033073 0.00735854 -0.032244
0.91 0.23 0.0320974 0.00605455 -0.0315212
0.93 0.23 0.0313068 0.00472846 -0.0309477
0.95 0.23 0.0307078 0.00338716 -0.0305204
0.97 0.23 0.0303055 0.002036 -0.030237
0.99 0.23 0.0301034 0.00067927 -0.0300958
0.01 0.25 0.0286756 -0.000750729 -0.0286657
0.03 0.25 0.0288975 -0.00225088 -0.0288097
0.05 0.25 0.0293391 -0.00374697 -0.0290989
0.07 0.25 0.029996 -0.00523568 -0.0295355
0.09 0.25 0.0308619 -0.00671247 -0.030123
0.11 0.25 0.0319291 -0.00817106 -0.0308658
0.13 0.25 0.0331884 -0.00960276 -0.0317688
0.15 0.25 0.0346292 -0.0109958 -0.0328371
0.17 0.25 0.0362392 -0.0123344 -0.0340755
0.19 0.25 0.0380037 -0.0135984 -0.0354875
0.21 0.25 0.0399052 -0.0147619 -0.0370744
0.23 0.25 0.0419224 -0.0157936 -0.0388336
0.25 0.25 0.0440297 -0.0166561 -0.0407577
0.27 0.25 0.0461965 -0.0173071 -0.042832
0.29 0.25 0.0483875 -0.0177006 -0.0450338
0.31 0.25 0.050563 -0.0177893 -0.0473304
0.33 0.25 0.0526801 -0.0175281 -0.0496786
0.35 0.25 0.0546944 -0.0168786 -0.0520249
0.37 0.25 0.0565619 -0.0158134 -0.0543064
0.39 0.25 0.0582413 -0.014321 -0.0564531
0.41 0.25 0.0596959 -0.0124102 -0.0583916
0.43 0.25 0.0608948 -0.0101124 -0.0600493
0.45 0.25 0.0618139 -0.00748253 -0.0613594
0.47 0.25 0.0624359 -0.00459715 -0.0622664
0.49 0.25 0.0627496 -0.00155073 -0.0627304
0.51 0.25 0.0627496 0.00155073 -0.0627304
0.53 0.25 0.0624359 0.00459715 -0.0622664
0.55 0.25 0.0618139 0.00748253 -0.0613594
0.57 0.25 0.0608948 0.0101124 -0.0600493
0.59 0.25 0.0596959 0.0124102 -0.0583916
0.61 0.25 0.0582413 0.014321 -0.0564531
0.63 0.25 0.0565619 0.0158134 -0.0543064
0.65 0.25 0.0546944 0.0168786 -0.0520249
0.67 0.25 0.0526801 0.0175281 -0.0496786
0.69 0.25 0.050563 0.0177893 -0.0473304
0.71 0.25 0.0483875 0.0177006 -0.0450338
0.73 0.25 0.0461965 0.0173071 -0.042832
0.75 0.25 0.0440297 0.0166561 -0.0407577
0.77 0.25 0.0419224 0.0157936 -0.0388336
0.79 0.25 0.0399052 0.0147619 -0.0370744
0.81 0.25 0.0380037 0.0135984 -0.0354875
0.83 0.25 0.0362392 0.0123344 -0.0340755
0.85 0.25 0.0346292 0.0109958 -0.0328371
0.87 0.25 0.0331884 0.00960276 -0.0317688
0.89 0.25 0.0319291 0.00817106 -0.0308658
0.91 0.25 0.0308619 0.00671247 -0.030123
0.93 0.25 0.029996 0.00523568 -0.0295355
0.95 0.25 0.0293391 0.00374697 -0.0290989
0.97 0.25 0.0288975 0.00225088 -0.0288097
0.99 0.25 0.0286756 0.000750729 -0.0286657
0.01 0.27 0.0271041 -0.00082326 -0.0270916
0.03 0.27 0.0273486 -0.00246912 -0.027237
0.05 0.27 0.0278347 -0.00411293 -0.0275292
0.07 0.27 0.0285567 -0.00575263 -0.0279712
0.09 0.27 0.0295066 -0.00738487 -0.0285675
0.11 0.27 0.0306749 -0.00900428 -0.0293236
0.13 0.27 0.0320508 -0.0106028 -0.0302462
0.15 0.27 0.0336217 -0.0121686 -0.0313424
0.17 0.27 0.0353737 -0.0136853 -0.0326192
0.19 0.27 0.0372902 -0.0151309 -0.0340825
0.21 0.27 0.0393516 -0.0164766 -0.0357361
0.23 0.27 0.0415337 -0.0176864 -0.0375797
0.25 0.27 0.0438074 -0.0187167 -0.0396078
0.27 0.27 0.0461381 -0.019517 -0.0418068
0.29 0.27 0.0484855 -0.0200316 -0.044154
0.31 0.27 0.0508049 -0.0202024 -0.0466155
0.33 0.27 0.0530485 -0.0199729 -0.049145
0.35 0.27 0.055168 -0.0192939 -0.0516841
0.37 0.27 0.0571169 -0.018129 -0.0541634
0.39 0.27 0.0588537 -0.0164608 -0.0565049
0.41 0.27 0.0603438 -0.0142965 -0.0586258
0.43 0.27 0.0615606 -0.0116709 -0.0604441
0.45 0.27 0.0624855 -0.00864784 -0.0618842
0.47 0.27 0.0631071 -0.00531815 -0.0628826
0.49 0.27 0.0634192 -0.00179479 -0.0633938
0.51 0.27 0.0634192 0.00179479 -0.0633938
0.53 0.27 0.0631071 0.00531815 -0.0628826
0.55 0.27 0.0624855 0.00864784 -0.0618842
0.57 0.27 0.0615606 0.0116709 -0.0604441
0.59 0.27 0.0603438 0.0142965 -0.0586258
0.61 0.27 0.0588537 0.0164608 -0.0565049
0.63 0.27 0.0571169 0.018129 -0.0541634
0.65 0.27 0.055168 0.0192939 -0.0516841
0.67 0.27 0.0530485 0.0199729 -0.049145
0.69 0.27 0.0508049 0.0202024 -0.0466155
0.71 0.27 0.0484855 0.0200316 -0.044154
0.73 0.27 0.0461381 0.019517 -0.0418068
0.75 0.27 0.0438074 0.0187167 -0.0396078
0.77 0.27 0.0415337 0.0176864 -0.0375797
0.79 0.27 0.0393516 0.0164766 -0.0357361
0.81 0.27 0.0372902 0.0151309 -0.0340825
0.83 0.27 0.0353737 0.0136853 -0.0326192
0.85 0.27 0.0336217 0.0121686 -0.0313424
0.87 0.27 0.0320508 0.0106028 -0.0302462
0.89 0.27 0.0306749 0.00900428 -0.0293236
0.91 0.27 0.0295066 0.00738487 -0.0285675
0.93 0.27 0.0285567 0.00575263 -0.0279712
0.95 0.27 0.0278347 0.00411293 -0.0275292
0.97 0.27 0.0273486 0.00246912 -0.027237
0.99 0.27 0.0271041 0.00082326 -0.0270916
0.01 0.29 0.0253877 -0.000896108 -0.0253718
0.03 0.29 0.0256582 -0.00268848 -0.0255169
0.05 0.29 0.026195 -0.00448124 -0.0258089
0.07 0.29 0.0269905 -0.00627399 -0.0262512
0.09 0.29 0.0280344 -0.00806486 -0.0268493
0.11 0.29 0.0293144 -0.00984977 -0.02761
0.13 0.29 0.030817 -0.0116215 -0.0285416
0.15 0.29 0.0325274 -0.0133688 -0.0296532
0.17 0.29 0.0344294 -0.0150746 -0.0309539