Variables = x, y, u
ZONE I= 50 J= 50 F=point
0.01 0.01 -0.000374531
0.03 0.01 -0.000375559
0.05 0.01 -0.000377607
0.07 0.01 -0.000380657
0.09 0.01 -0.000384683
0.11 0.01 -0.000389649
0.13 0.01 -0.000395508
0.15 0.01 -0.000402203
0.17 0.01 -0.000409665
0.19 0.01 -0.000417809
0.21 0.01 -0.00042654
0.23 0.01 -0.000435746
0.25 0.01 -0.000445303
0.27 0.01 -0.000455071
0.29 0.01 -0.000464898
0.31 0.01 -0.000474621
0.33 0.01 -0.000484067
0.35 0.01 -0.000493059
0.37 0.01 -0.000501419
0.39 0.01 -0.000508973
0.41 0.01 -0.000515556
0.43 0.01 -0.00052102
0.45 0.01 -0.000525237
0.47 0.01 -0.000528107
0.49 0.01 -0.000529559
0.51 0.01 -0.000529559
0.53 0.01 -0.000528107
0.55 0.01 -0.000525237
0.57 0.01 -0.000521019
0.59 0.01 -0.000515556
0.61 0.01 -0.000508973
0.63 0.01 -0.000501419
0.65 0.01 -0.000493059
0.67 0.01 -0.000484067
0.69 0.01 -0.000474621
0.71 0.01 -0.000464898
0.73 0.01 -0.000455071
0.75 0.01 -0.000445303
0.77 0.01 -0.000435746
0.79 0.01 -0.000426539
0.81 0.01 -0.000417808
0.83 0.01 -0.000409664
0.85 0.01 -0.000402203
0.87 0.01 -0.000395507
0.89 0.01 -0.000389648
0.91 0.01 -0.000384682
0.93 0.01 -0.000380656
0.95 0.01 -0.000377605
0.97 0.01 -0.000375557
0.99 0.01 -0.000374529
0.01 0.03 -0.00112256
0.03 0.03 -0.00112566
0.05 0.03 -0.00113182
0.07 0.03 -0.00114099
0.09 0.03 -0.00115311
0.11 0.03 -0.00116805
0.13 0.03 -0.00118569
0.15 0.03 -0.00120584
0.17 0.03 -0.00122831
0.19 0.03 -0.00125284
0.21 0.03 -0.00127914
0.23 0.03 -0.00130688
0.25 0.03 -0.00133569
0.27 0.03 -0.00136514
0.29 0.03 -0.00139478
0.31 0.03 -0.00142411
0.33 0.03 -0.00145262
0.35 0.03 -0.00147977
0.37 0.03 -0.00150501
0.39 0.03 -0.00152783
0.41 0.03 -0.00154772
0.43 0.03 -0.00156423
0.45 0.03 -0.00157698
0.47 0.03 -0.00158565
0.49 0.03 -0.00159004
0.51 0.03 -0.00159004
0.53 0.03 -0.00158565
0.55 0.03 -0.00157697
0.57 0.03 -0.00156423
0.59 0.03 -0.00154772
0.61 0.03 -0.00152783
0.63 0.03 -0.00150501
0.65 0.03 -0.00147977
0.67 0.03 -0.00145262
0.69 0.03 -0.00142411
0.71 0.03 -0.00139478
0.73 0.03 -0.00136514
0.75 0.03 -0.00133569
0.77 0.03 -0.00130688
0.79 0.03 -0.00127914
0.81 0.03 -0.00125284
0.83 0.03 -0.00122831
0.85 0.03 -0.00120584
0.87 0.03 -0.00118568
0.89 0.03 -0.00116805
0.91 0.03 -0.0011531
0.93 0.03 -0.00114099
0.95 0.03 -0.00113181
0.97 0.03 -0.00112565
0.99 0.03 -0.00112256
0.01 0.05 -0.0018675
0.03 0.05 -0.00187269
0.05 0.05 -0.00188301
0.07 0.05 -0.00189839
0.09 0.05 -0.0019187
0.11 0.05 -0.00194376
0.13 0.05 -0.00197335
0.15 0.05 -0.00200717
0.17 0.05 -0.00204489
0.19 0.05 -0.00208609
0.21 0.05 -0.00213029
0.23 0.05 -0.00217694
0.25 0.05 -0.00222541
0.27 0.05 -0.002275
0.29 0.05 -0.00232493
0.31 0.05 -0.00237439
0.33 0.05 -0.00242248
0.35 0.05 -0.0024683
0.37 0.05 -0.00251094
0.39 0.05 -0.0025495
0.41 0.05 -0.00258313
0.43 0.05 -0.00261106
0.45 0.05 -0.00263262
0.47 0.05 -0.00264731
0.49 0.05 -0.00265474
0.51 0.05 -0.00265474
0.53 0.05 -0.00264731
0.55 0.05 -0.00263262
0.57 0.05 -0.00261106
0.59 0.05 -0.00258313
0.61 0.05 -0.0025495
0.63 0.05 -0.00251094
0.65 0.05 -0.0024683
0.67 0.05 -0.00242248
0.69 0.05 -0.00237438
0.71 0.05 -0.00232493
0.73 0.05 -0.00227499
0.75 0.05 -0.00222541
0.77 0.05 -0.00217694
0.79 0.05 -0.00213029
0.81 0.05 -0.00208608
0.83 0.05 -0.00204488
0.85 0.05 -0.00200717
0.87 0.05 -0.00197334
0.89 0.05 -0.00194376
0.91 0.05 -0.0019187
0.93 0.05 -0.00189839
0.95 0.05 -0.00188301
0.97 0.05 -0.00187268
0.99 0.05 -0.0018675
0.01 0.07 -0.00260727
0.03 0.07 -0.00261458
0.05 0.07 -0.00262915
0.07 0.07 -0.00265087
0.09 0.07 -0.00267955
0.11 0.07 -0.00271495
0.13 0.07 -0.00275677
0.15 0.07 -0.0028046
0.17 0.07 -0.00285798
0.19 0.07 -0.00291632
0.21 0.07 -0.00297898
0.23 0.07 -0.00304515
0.25 0.07 -0.00311398
0.27 0.07 -0.00318445
0.29 0.07 -0.0032555
0.31 0.07 -0.00332592
0.33 0.07 -0.00339448
0.35 0.07 -0.00345987
0.37 0.07 -0.00352077
0.39 0.07 -0.00357588
0.41 0.07 -0.00362399
0.43 0.07 -0.00366397
0.45 0.07 -0.00369486
0.47 0.07 -0.00371589
0.49 0.07 -0.00372654
0.51 0.07 -0.00372654
0.53 0.07 -0.00371589
0.55 0.07 -0.00369485
0.57 0.07 -0.00366397
0.59 0.07 -0.00362399
0.61 0.07 -0.00357588
0.63 0.07 -0.00352076
0.65 0.07 -0.00345987
0.67 0.07 -0.00339448
0.69 0.07 -0.00332592
0.71 0.07 -0.00325549
0.73 0.07 -0.00318445
0.75 0.07 -0.00311397
0.77 0.07 -0.00304515
0.79 0.07 -0.00297897
0.81 0.07 -0.00291632
0.83 0.07 -0.00285797
0.85 0.07 -0.0028046
0.87 0.07 -0.00275676
0.89 0.07 -0.00271495
0.91 0.07 -0.00267954
0.93 0.07 -0.00265086
0.95 0.07 -0.00262915
0.97 0.07 -0.00261457
0.99 0.07 -0.00260726
0.01 0.09 -0.00333972
0.03 0.09 -0.00334922
0.05 0.09 -0.00336815
0.07 0.09 -0.00339638
0.09 0.09 -0.00343367
0.11 0.09 -0.00347973
0.13 0.09 -0.00353416
0.15 0.09 -0.00359648
0.17 0.09 -0.00366608
0.19 0.09 -0.00374224
0.21 0.09 -0.0038241
0.23 0.09 -0.00391068
0.25 0.09 -0.00400082
0.27 0.09 -0.00409325
0.29 0.09 -0.00418655
0.31 0.09 -0.00427916
0.33 0.09 -0.00436943
0.35 0.09 -0.00445564
0.37 0.09 -0.00453603
0.39 0.09 -0.00460887
0.41 0.09 -0.00467251
0.43 0.09 -0.00472545
0.45 0.09 -0.00476637
0.47 0.09 -0.00479426
0.49 0.09 -0.00480839
0.51 0.09 -0.00480839
0.53 0.09 -0.00479426
0.55 0.09 -0.00476637
0.57 0.09 -0.00472545
0.59 0.09 -0.00467251
0.61 0.09 -0.00460887
0.63 0.09 -0.00453603
0.65 0.09 -0.00445564
0.67 0.09 -0.00436943
0.69 0.09 -0.00427916
0.71 0.09 -0.00418654
0.73 0.09 -0.00409325
0.75 0.09 -0.00400081
0.77 0.09 -0.00391067
0.79 0.09 -0.0038241
0.81 0.09 -0.00374224
0.83 0.09 -0.00366608
0.85 0.09 -0.00359648
0.87 0.09 -0.00353416
0.89 0.09 -0.00347972
0.91 0.09 -0.00343366
0.93 0.09 -0.00339637
0.95 0.09 -0.00336814
0.97 0.09 -0.00334921
0.99 0.09 -0.0033397
0.01 0.11 -0.00406267
0.03 0.11 -0.00407443
0.05 0.11 -0.00409787
0.07 0.11 -0.00413282
0.09 0.11 -0.00417902
0.11 0.11 -0.00423613
0.13 0.11 -0.00430367
0.15 0.11 -0.00438107
0.17 0.11 -0.00446761
0.19 0.11 -0.00456242
0.21 0.11 -0.00466447
0.23 0.11 -0.00477254
0.25 0.11 -0.00488525
0.27 0.11 -0.00500101
0.29 0.11 -0.00511805
0.31 0.11 -0.00523442
0.33 0.11 -0.00534805
0.35 0.11 -0.00545673
0.37 0.11 -0.00555824
0.39 0.11 -0.00565034
0.41 0.11 -0.00573091
0.43 0.11 -0.005798
0.45 0.11 -0.00584991
0.47 0.11 -0.00588531
0.49 0.11 -0.00590325
0.51 0.11 -0.00590325
0.53 0.11 -0.00588531
0.55 0.11 -0.00584991
0.57 0.11 -0.005798
0.59 0.11 -0.00573091
0.61 0.11 -0.00565034
0.63 0.11 -0.00555824
0.65 0.11 -0.00545673
0.67 0.11 -0.00534804
0.69 0.11 -0.00523442
0.71 0.11 -0.00511804
0.73 0.11 -0.00500101
0.75 0.11 -0.00488525
0.77 0.11 -0.00477254
0.79 0.11 -0.00466446
0.81 0.11 -0.00456241
0.83 0.11 -0.0044676
0.85 0.11 -0.00438106
0.87 0.11 -0.00430366
0.89 0.11 -0.00423612
0.91 0.11 -0.00417901
0.93 0.11 -0.00413281
0.95 0.11 -0.00409786
0.97 0.11 -0.00407442
0.99 0.11 -0.00406265
0.01 0.13 -0.00477387
0.03 0.13 -0.00478797
0.05 0.13 -0.00481608
0.07 0.13 -0.00485801
0.09 0.13 -0.00491347
0.11 0.13 -0.00498208
0.13 0.13 -0.00506331
0.15 0.13 -0.0051565
0.17 0.13 -0.00526083
0.19 0.13 -0.0053753
0.21 0.13 -0.0054987
0.23 0.13 -0.00562963
0.25 0.13 -0.00576642
0.27 0.13 -0.00590719
0.29 0.13 -0.0060498
0.31 0.13 -0.00619188
0.33 0.13 -0.00633089
0.35 0.13 -0.00646412
0.37 0.13 -0.00658877
0.39 0.13 -0.00670207
0.41 0.13 -0.00680133
0.43 0.13 -0.00688408
0.45 0.13 -0.00694819
0.47 0.13 -0.00699193
0.49 0.13 -0.00701411
0.51 0.13 -0.00701411
0.53 0.13 -0.00699193
0.55 0.13 -0.00694819
0.57 0.13 -0.00688408
0.59 0.13 -0.00680132
0.61 0.13 -0.00670206
0.63 0.13 -0.00658877
0.65 0.13 -0.00646411
0.67 0.13 -0.00633089
0.69 0.13 -0.00619188
0.71 0.13 -0.00604979
0.73 0.13 -0.00590718
0.75 0.13 -0.00576642
0.77 0.13 -0.00562962
0.79 0.13 -0.00549869
0.81 0.13 -0.00537529
0.83 0.13 -0.00526082
0.85 0.13 -0.00515649
0.87 0.13 -0.0050633
0.89 0.13 -0.00498207
0.91 0.13 -0.00491346
0.93 0.13 -0.00485799
0.95 0.13 -0.00481606
0.97 0.13 -0.00478795
0.99 0.13 -0.00477385
0.01 0.15 -0.00547097
0.03 0.15 -0.0054875
0.05 0.15 -0.00552046
0.07 0.15 -0.00556965
0.09 0.15 -0.00563478
0.11 0.15 -0.0057154
0.13 0.15 -0.00581097
0.15 0.15 -0.00592075
0.17 0.15 -0.00604384
0.19 0.15 -0.00617912
0.21 0.15 -0.00632525
0.23 0.15 -0.00648059
0.25 0.15 -0.00664325
0.27 0.15 -0.00681101
0.29 0.15 -0.00698136
0.31 0.15 -0.00715149
0.33 0.15 -0.00731832
0.35 0.15 -0.00747857
0.37 0.15 -0.00762882
0.39 0.15 -0.00776566
0.41 0.15 -0.00788575
0.43 0.15 -0.00798602
0.45 0.15 -0.00806379
0.47 0.15 -0.0081169
0.49 0.15 -0.00814385
0.51 0.15 -0.00814385
0.53 0.15 -0.0081169
0.55 0.15 -0.00806379
0.57 0.15 -0.00798602
0.59 0.15 -0.00788575
0.61 0.15 -0.00776566
0.63 0.15 -0.00762882
0.65 0.15 -0.00747856
0.67 0.15 -0.00731832
0.69 0.15 -0.00715149
0.71 0.15 -0.00698136
0.73 0.15 -0.00681101
0.75 0.15 -0.00664324
0.77 0.15 -0.00648058
0.79 0.15 -0.00632524
0.81 0.15 -0.00617911
0.83 0.15 -0.00604383
0.85 0.15 -0.00592074
0.87 0.15 -0.00581095
0.89 0.15 -0.00571539
0.91 0.15 -0.00563476
0.93 0.15 -0.00556964
0.95 0.15 -0.00552045
0.97 0.15 -0.00548749
0.99 0.15 -0.00547095
0.01 0.17 -0.00615156
0.03 0.17 -0.00617061
0.05 0.17 -0.00620862
0.07 0.17 -0.00626537
0.09 0.17 -0.00634057
0.11 0.17 -0.00643376
0.13 0.17 -0.00654436
0.15 0.17 -0.00667161
0.17 0.17 -0.00681454
0.19 0.17 -0.00697193
0.21 0.17 -0.00714229
0.23 0.17 -0.00732382
0.25 0.17 -0.00751436
0.27 0.17 -0.00771139
0.29 0.17 -0.00791199
0.31 0.17 -0.00811285
0.33 0.17 -0.00831034
0.35 0.17 -0.00850051
0.37 0.17 -0.00867926
0.39 0.17 -0.0088424
0.41 0.17 -0.00898586
0.43 0.17 -0.00910584
0.45 0.17 -0.00919902
0.47 0.17 -0.00926272
0.49 0.17 -0.00929506
0.51 0.17 -0.00929506
0.53 0.17 -0.00926272
0.55 0.17 -0.00919902
0.57 0.17 -0.00910584
0.59 0.17 -0.00898586
0.61 0.17 -0.0088424
0.63 0.17 -0.00867926
0.65 0.17 -0.00850051
0.67 0.17 -0.00831033
0.69 0.17 -0.00811284
0.71 0.17 -0.00791198
0.73 0.17 -0.00771138
0.75 0.17 -0.00751435
0.77 0.17 -0.00732381
0.79 0.17 -0.00714228
0.81 0.17 -0.00697192
0.83 0.17 -0.00681453
0.85 0.17 -0.0066716
0.87 0.17 -0.00654435
0.89 0.17 -0.00643375
0.91 0.17 -0.00634055
0.93 0.17 -0.00626536
0.95 0.17 -0.0062086
0.97 0.17 -0.00617059
0.99 0.17 -0.00615154
0.01 0.19 -0.0068131
0.03 0.19 -0.00683477
0.05 0.19 -0.00687802
0.07 0.19 -0.00694264
0.09 0.19 -0.00702834
0.11 0.19 -0.00713467
0.13 0.19 -0.00726105
0.15 0.19 -0.00740669
0.17 0.19 -0.00757058
0.19 0.19 -0.00775145
0.21 0.19 -0.0079477
0.23 0.19 -0.00815734
0.25 0.19 -0.008378
0.27 0.19 -0.00860682
0.29 0.19 -0.00884046
0.31 0.19 -0.00907509
0.33 0.19 -0.00930645
0.35 0.19 -0.00952987
0.37 0.19 -0.00974041
0.39 0.19 -0.00993304
0.41 0.19 -0.0101028
0.43 0.19 -0.010245
0.45 0.19 -0.0103556
0.47 0.19 -0.0104313
0.49 0.19 -0.0104698
0.51 0.19 -0.0104698
0.53 0.19 -0.0104313
0.55 0.19 -0.0103556
0.57 0.19 -0.010245
0.59 0.19 -0.0101028
0.61 0.19 -0.00993304
0.63 0.19 -0.00974041
0.65 0.19 -0.00952986
0.67 0.19 -0.00930645
0.69 0.19 -0.00907509
0.71 0.19 -0.00884045
0.73 0.19 -0.00860681
0.75 0.19 -0.00837799
0.77 0.19 -0.00815733
0.79 0.19 -0.00794769
0.81 0.19 -0.00775144
0.83 0.19 -0.00757057
0.85 0.19 -0.00740668
0.87 0.19 -0.00726104
0.89 0.19 -0.00713466
0.91 0.19 -0.00702832
0.93 0.19 -0.00694262
0.95 0.19 -0.006878
0.97 0.19 -0.00683475
0.99 0.19 -0.00681307
0.01 0.21 -0.00745297
0.03 0.21 -0.00747736
0.05 0.21 -0.00752603
0.07 0.21 -0.00759882
0.09 0.21 -0.00769544
0.11 0.21 -0.00781548
0.13 0.21 -0.00795836
0.15 0.21 -0.00812333
0.17 0.21 -0.00830936
0.19 0.21 -0.00851513
0.21 0.21 -0.00873898
0.23 0.21 -0.00897879
0.25 0.21 -0.00923194
0.27 0.21 -0.00949525
0.29 0.21 -0.00976497
0.31 0.21 -0.0100367
0.33 0.21 -0.0103055
0.35 0.21 -0.0105658
0.37 0.21 -0.0108118
0.39 0.21 -0.0110375
0.41 0.21 -0.0112368
0.43 0.21 -0.0114041
0.45 0.21 -0.0115345
0.47 0.21 -0.0116238
0.49 0.21 -0.0116692
0.51 0.21 -0.0116692
0.53 0.21 -0.0116238
0.55 0.21 -0.0115345
0.57 0.21 -0.0114041
0.59 0.21 -0.0112368
0.61 0.21 -0.0110375
0.63 0.21 -0.0108118
0.65 0.21 -0.0105658
0.67 0.21 -0.0103055
0.69 0.21 -0.0100367
0.71 0.21 -0.00976496
0.73 0.21 -0.00949525
0.75 0.21 -0.00923193
0.77 0.21 -0.00897878
0.79 0.21 -0.00873897
0.81 0.21 -0.00851512
0.83 0.21 -0.00830934
0.85 0.21 -0.00812331
0.87 0.21 -0.00795835
0.89 0.21 -0.00781546
0.91 0.21 -0.00769543
0.93 0.21 -0.0075988
0.95 0.21 -0.00752601
0.97 0.21 -0.00747734
0.99 0.21 -0.00745295
0.01 0.23 -0.00806847
0.03 0.23 -0.00809565
0.05 0.23 -0.00814993
0.07 0.23 -0.00823115
0.09 0.23 -0.00833908
0.11 0.23 -0.00847335
0.13 0.23 -0.00863343
0.15 0.23 -0.00881862
0.17 0.23 -0.00902792
0.19 0.23 -0.00926002
0.21 0.23 -0.00951321
0.23 0.23 -0.00978525
0.25 0.23 -0.0100733
0.27 0.23 -0.010374
0.29 0.23 -0.010683
0.31 0.23 -0.0109953
0.33 0.23 -0.0113053
0.35 0.23 -0.0116065
0.37 0.23 -0.0118919
0.39 0.23 -0.0121545
0.41 0.23 -0.012387
0.43 0.23 -0.0125825
0.45 0.23 -0.0127351
0.47 0.23 -0.0128397
0.49 0.23 -0.012893
0.51 0.23 -0.012893
0.53 0.23 -0.0128397
0.55 0.23 -0.0127351
0.57 0.23 -0.0125825
0.59 0.23 -0.012387
0.61 0.23 -0.0121545
0.63 0.23 -0.0118919
0.65 0.23 -0.0116065
0.67 0.23 -0.0113053
0.69 0.23 -0.0109953
0.71 0.23 -0.010683
0.73 0.23 -0.010374
0.75 0.23 -0.0100733
0.77 0.23 -0.00978524
0.79 0.23 -0.0095132
0.81 0.23 -0.00926001
0.83 0.23 -0.0090279
0.85 0.23 -0.0088186
0.87 0.23 -0.00863342
0.89 0.23 -0.00847333
0.91 0.23 -0.00833906
0.93 0.23 -0.00823113
0.95 0.23 -0.00814991
0.97 0.23 -0.00809563
0.99 0.23 -0.00806845
0.01 0.25 -0.0086568
0.03 0.25 -0.00868684
0.05 0.25 -0.00874685
0.07 0.25 -0.00883673
0.09 0.25 -0.00895629
0.11 0.25 -0.00910525
0.13 0.25 -0.00928315
0.15 0.25 -0.00948937
0.17 0.25 -0.00972299
0.19 0.25 -0.00998276
0.21 0.25 -0.0102669
0.23 0.25 -0.0105732
0.25 0.25 -0.0108987
0.27 0.25 -0.0112395
0.29 0.25 -0.011591
0.31 0.25 -0.0119475
0.33 0.25 -0.0123026
0.35 0.25 -0.0126487
0.37 0.25 -0.0129777
0.39 0.25 -0.0132812
0.41 0.25 -0.0135506
0.43 0.25 -0.0137776
0.45 0.25 -0.013955
0.47 0.25 -0.0140769
0.49 0.25 -0.0141389
0.51 0.25 -0.0141389
0.53 0.25 -0.0140769
0.55 0.25 -0.013955
0.57 0.25 -0.0137776
0.59 0.25 -0.0135505
0.61 0.25 -0.0132812
0.63 0.25 -0.0129777
0.65 0.25 -0.0126486
0.67 0.25 -0.0123026
0.69 0.25 -0.0119475
0.71 0.25 -0.011591
0.73 0.25 -0.0112395
0.75 0.25 -0.0108987
0.77 0.25 -0.0105732
0.79 0.25 -0.0102669
0.81 0.25 -0.00998274
0.83 0.25 -0.00972298
0.85 0.25 -0.00948935
0.87 0.25 -0.00928313
0.89 0.25 -0.00910523
0.91 0.25 -0.00895628
0.93 0.25 -0.00883671
0.95 0.25 -0.00874683
0.97 0.25 -0.00868682
0.99 0.25 -0.00865678
0.01 0.27 -0.0092151
0.03 0.27 -0.00924804
0.05 0.27 -0.00931388
0.07 0.27 -0.00941257
0.09 0.27 -0.009544
0.11 0.27 -0.00970798
0.13 0.27 -0.00990419
0.15 0.27 -0.0101321
0.17 0.27 -0.0103909
0.19 0.27 -0.0106795
0.21 0.27 -0.0109962
0.23 0.27 -0.0113386
0.25 0.27 -0.0117037
0.27 0.27 -0.0120873
0.29 0.27 -0.0124843
0.31 0.27 -0.0128886
0.33 0.27 -0.0132924
0.35 0.27 -0.0136875
0.37 0.27 -0.0140642
0.39 0.27 -0.0144126
0.41 0.27 -0.0147226
0.43 0.27 -0.0149845
0.45 0.27 -0.0151895
0.47 0.27 -0.0153304
0.49 0.27 -0.0154022
0.51 0.27 -0.0154022
0.53 0.27 -0.0153304
0.55 0.27 -0.0151895
0.57 0.27 -0.0149845
0.59 0.27 -0.0147226
0.61 0.27 -0.0144126
0.63 0.27 -0.0140642
0.65 0.27 -0.0136875
0.67 0.27 -0.0132924
0.69 0.27 -0.0128885
0.71 0.27 -0.0124843
0.73 0.27 -0.0120873
0.75 0.27 -0.0117036
0.77 0.27 -0.0113386
0.79 0.27 -0.0109962
0.81 0.27 -0.0106795
0.83 0.27 -0.0103909
0.85 0.27 -0.0101321
0.87 0.27 -0.00990417
0.89 0.27 -0.00970796
0.91 0.27 -0.00954398
0.93 0.27 -0.00941255
0.95 0.27 -0.00931386
0.97 0.27 -0.00924802
0.99 0.27 -0.00921507
0.01 0.29 -0.00974046
0.03 0.29 -0.00977632
0.05 0.29 -0.00984802
0.07 0.29 -0.00995559
0.09 0.29 -0.010099
0.11 0.29 -0.0102782
0.13 0.29 -0.010493
0.15 0.29 -0.0107431
0.17 0.29 -0.0110278
0.19 0.29 -0.0113461
0.21 0.29 -0.0116964
0.23 0.29 -0.0120764
0.25 0.29 -0.012483
0.27 0.29 -0.0129118
0.29 0.29 -0.0133572
0.31 0.29 -0.0138122
0.33 0.29 -0.0142684
0.35 0.29 -0.014716
0.37 0.29 -0.0151443
0.39 0.29 -0.0155414
0.41 0.29 -0.0158956
0.43 0.29 -0.0161954
0.45 0.29 -0.0164304
0.47 0.29 -0.0165922
0.49 0.29 -0.0166747
0.51 0.29 -0.0166747
0.53 0.29 -0.0165922
0.55 0.29 -0.0164304
0.57 0.29 -0.0161954
0.59 0.29 -0.0158956
0.61 0.29 -0.0155414
0.63 0.29 -0.0151443
0.65 0.29 -0.014716
0.67 0.29 -0.0142684
0.69 0.29 -0.0138121
0.71 0.29 -0.0133571
0.73 0.29 -0.0129118
0.75 0.29 -0.012483
0.77 0.29 -0.0120764
0.79 0.29 -0.0116964
0.81 0.29 -0.0113461
0.83 0.29 -0.0110278
0.85 0.29 -0.0107431
0.87 0.29 -0.010493
0.89 0.29 -0.0102782
0.91 0.29 -0.010099
0.93 0.29 -0.00995556
0.95 0.29 -0.009848
0.97 0.29 -0.00977629
0.99 0.29 -0.00974044
0.01 0.31 -0.01023
0.03 0.31 -0.0102687
0.05 0.31 -0.0103462
0.07 0.31 -0.0104626
0.09 0.31 -0.010618
0.11 0.31 -0.0108124
0.13 0.31 -0.0110459
0.15 0.31 -0.0113182
0.17 0.31 -0.0116291
0.19 0.31 -0.0119776
0.21 0.31 -0.0123624
0.23 0.31 -0.0127811
0.25 0.31 -0.0132306
0.27 0.31 -0.0137063
0.29 0.31 -0.0142021
0.31 0.31 -0.0147104
0.33 0.31 -0.0152218
0.35 0.31 -0.0157252
0.37 0.31 -0.0162081
0.39 0.31 -0.0166572
0.41 0.31 -0.0170586
0.43 0.31 -0.017399
0.45 0.31 -0.0176663
0.47 0.31 -0.0178506
0.49 0.31 -0.0179445
0.51 0.31 -0.0179445
0.53 0.31 -0.0178506
0.55 0.31 -0.0176663
0.57 0.31 -0.017399
0.59 0.31 -0.0170586
0.61 0.31 -0.0166572
0.63 0.31 -0.0162081
0.65 0.31 -0.0157251
0.67 0.31 -0.0152218
0.69 0.31 -0.0147104
0.71 0.31 -0.0142021
0.73 0.31 -0.0137062
0.75 0.31 -0.0132306
0.77 0.31 -0.0127811
0.79 0.31 -0.0123624
0.81 0.31 -0.0119776
0.83 0.31 -0.0116291
0.85 0.31 -0.0113182
0.87 0.31 -0.0110458
0.89 0.31 -0.0108124
0.91 0.31 -0.010618
0.93 0.31 -0.0104626
0.95 0.31 -0.0103462
0.97 0.31 -0.0102687
0.99 0.31 -0.0102299
0.01 0.33 -0.0106807
0.03 0.33 -0.0107223
0.05 0.33 -0.0108055
0.07 0.33 -0.0109305
0.09 0.33 -0.0110976
0.11 0.33 -0.011307
0.13 0.33 -0.0115589
0.15 0.33 -0.0118534
0.17 0.33 -0.0121903
0.19 0.33 -0.0125691
0.21 0.33 -0.0129884
0.23 0.33 -0.0134462
0.25 0.33 -0.0139393
0.27 0.33 -0.0144628
0.29 0.33 -0.0150104
0.31 0.33 -0.0155736
0.33 0.33 -0.0161421
0.35 0.33 -0.0167033
0.37 0.33 -0.0172432
0.39 0.33 -0.0177466
0.41 0.33 -0.0181975
0.43 0.33 -0.0185805
0.45 0.33 -0.0188818
0.47 0.33 -0.0190896
0.49 0.33 -0.0191956
0.51 0.33 -0.0191956
0.53 0.33 -0.0190896
0.55 0.33 -0.0188818
0.57 0.33 -0.0185805
0.59 0.33 -0.0181975
0.61 0.33 -0.0177466
0.63 0.33 -0.0172432
0.65 0.33 -0.0167033
0.67 0.33 -0.016142
0.69 0.33 -0.0155736
0.71 0.33 -0.0150104
0.73 0.33 -0.0144628
0.75 0.33 -0.0139393
0.77 0.33 -0.0134462
0.79 0.33 -0.0129884
0.81 0.33 -0.012569
0.83 0.33 -0.0121903
0.85 0.33 -0.0118534
0.87 0.33 -0.0115589
0.89 0.33 -0.011307
0.91 0.33 -0.0110976
0.93 0.33 -0.0109305
0.95 0.33 -0.0108055
0.97 0.33 -0.0107223
0.99 0.33 -0.0106807
0.01 0.35 -0.0110899
0.03 0.35 -0.0111342
0.05 0.35 -0.0112228
0.07 0.35 -0.0113562
0.09 0.35 -0.0115345
0.11 0.35 -0.0117583
0.13 0.35 -0.0120281
0.15 0.35 -0.0123441
0.17 0.35 -0.0127065
0.19 0.35 -0.0131149
0.21 0.35 -0.0135683
0.23 0.35 -0.0140648
0.25 0.35 -0.0146012
0.27 0.35 -0.0151725
0.29 0.35 -0.015772
0.31 0.35 -0.0163905
0.33 0.35 -0.0170166
0.35 0.35 -0.0176365
0.37 0.35 -0.0182345
0.39 0.35 -0.0187931
0.41 0.35 -0.0192946
0.43 0.35 -0.0197214
0.45 0.35 -0.0200574
0.47 0.35 -0.0202894
0.49 0.35 -0.0204079
0.51 0.35 -0.0204079
0.53 0.35 -0.0202894
0.55 0.35 -0.0200574
0.57 0.35 -0.0197214
0.59 0.35 -0.0192946
0.61 0.35 -0.0187931
0.63 0.35 -0.0182345
0.65 0.35 -0.0176365
0.67 0.35 -0.0170166
0.69 0.35 -0.0163905
0.71 0.35 -0.015772
0.73 0.35 -0.0151725
0.75 0.35 -0.0146012
0.77 0.35 -0.0140648
0.79 0.35 -0.0135683
0.81 0.35 -0.0131148
0.83 0.35 -0.0127064
0.85 0.35 -0.0123441
0.87 0.35 -0.0120281
0.89 0.35 -0.0117583
0.91 0.35 -0.0115345
0.93 0.35 -0.0113561
0.95 0.35 -0.0112228
0.97 0.35 -0.0111342
0.99 0.35 -0.0110899
0.01 0.37 -0.0114548
0.03 0.37 -0.0115016
0.05 0.37 -0.0115954
0.07 0.37 -0.0117365
0.09 0.37 -0.0119255
0.11 0.37 -0.0121629
0.13 0.37 -0.0124496
0.15 0.37 -0.012786
0.17 0.37 -0.0131726
0.19 0.37 -0.0136093
0.21 0.37 -0.0140955
0.23 0.37 -0.0146294
0.25 0.37 -0.0152077
0.27 0.37 -0.0158256
0.29 0.37 -0.0164757
0.31 0.37 -0.0171484
0.33 0.37 -0.0178312
0.35 0.37 -0.018509
0.37 0.37 -0.0191643
0.39 0.37 -0.0197777
0.41 0.37 -0.0203294
0.43 0.37 -0.0207996
0.45 0.37 -0.0211703
0.47 0.37 -0.0214264
0.49 0.37 -0.0215573
0.51 0.37 -0.0215573
0.53 0.37 -0.0214264
0.55 0.37 -0.0211703
0.57 0.37 -0.0207996
0.59 0.37 -0.0203294
0.61 0.37 -0.0197777
0.63 0.37 -0.0191642
0.65 0.37 -0.018509
0.67 0.37 -0.0178312
0.69 0.37 -0.0171484
0.71 0.37 -0.0164757
0.73 0.37 -0.0158256
0.75 0.37 -0.0152077
0.77 0.37 -0.0146294
0.79 0.37 -0.0140955
0.81 0.37 -0.0136093
0.83 0.37 -0.0131726
0.85 0.37 -0.012786
0.87 0.37 -0.0124495
0.89 0.37 -0.0121629
0.91 0.37 -0.0119254
0.93 0.37 -0.0117365
0.95 0.37 -0.0115954
0.97 0.37 -0.0115016
0.99 0.37 -0.0114548
0.01 0.39 -0.0117729
0.03 0.39 -0.011822
0.05 0.39 -0.0119204
0.07 0.39 -0.0120686
0.09 0.39 -0.0122673
0.11 0.39 -0.0125173
0.13 0.39 -0.0128194
0.15 0.39 -0.0131746
0.17 0.39 -0.0135837
0.19 0.39 -0.0140467
0.21 0.39 -0.0145634
0.23 0.39 -0.0151322
0.25 0.39 -0.0157499
0.27 0.39 -0.0164115
0.29 0.39 -0.0171096
0.31 0.39 -0.0178336
0.33 0.39 -0.0185703
0.35 0.39 -0.0193032
0.37 0.39 -0.0200133
0.39 0.39 -0.0206792
0.41 0.39 -0.021279
0.43 0.39 -0.0217909
0.45 0.39 -0.0221948
0.47 0.39 -0.0224741
0.49 0.39 -0.0226169
0.51 0.39 -0.0226169
0.53 0.39 -0.0224741
0.55 0.39 -0.0221948
0.57 0.39 -0.0217909
0.59 0.39 -0.021279
0.61 0.39 -0.0206792
0.63 0.39 -0.0200132
0.65 0.39 -0.0193032
0.67 0.39 -0.0185703
0.69 0.39 -0.0178336
0.71 0.39 -0.0171096
0.73 0.39 -0.0164115
0.75 0.39 -0.0157499
0.77 0.39 -0.0151321
0.79 0.39 -0.0145634
0.81 0.39 -0.0140467
0.83 0.39 -0.0135836
0.85 0.39 -0.0131746
0.87 0.39 -0.0128194
0.89 0.39 -0.0125172
0.91 0.39 -0.0122673
0.93 0.39 -0.0120686
0.95 0.39 -0.0119204
0.97 0.39 -0.011822
0.99 0.39 -0.0117728
0.01 0.41 -0.0120418
0.03 0.41 -0.0120929
0.05 0.41 -0.0121955
0.07 0.41 -0.0123499
0.09 0.41 -0.0125571
0.11 0.41 -0.0128181
0.13 0.41 -0.013134
0.15 0.41 -0.0135059
0.17 0.41 -0.0139349
0.19 0.41 -0.0144215
0.21 0.41 -0.0149655
0.23 0.41 -0.0155656
0.25 0.41 -0.0162188
0.27 0.41 -0.01692
0.29 0.41 -0.0176615
0.31 0.41 -0.0184322
0.33 0.41 -0.019218
0.35 0.41 -0.0200013
0.37 0.41 -0.0207613
0.39 0.41 -0.0214754
0.41 0.41 -0.0221193
0.43 0.41 -0.0226695
0.45 0.41 -0.023104
0.47 0.41 -0.0234046
0.49 0.41 -0.0235584
0.51 0.41 -0.0235584
0.53 0.41 -0.0234046
0.55 0.41 -0.023104
0.57 0.41 -0.0226695
0.59 0.41 -0.0221193
0.61 0.41 -0.0214754
0.63 0.41 -0.0207613
0.65 0.41 -0.0200012
0.67 0.41 -0.019218
0.69 0.41 -0.0184322
0.71 0.41 -0.0176614
0.73 0.41 -0.01692
0.75 0.41 -0.0162188
0.77 0.41 -0.0155656
0.79 0.41 -0.0149655
0.81 0.41 -0.0144215
0.83 0.41 -0.0139349
0.85 0.41 -0.0135059
0.87 0.41 -0.013134
0.89 0.41 -0.0128181
0.91 0.41 -0.0125571
0.93 0.41 -0.0123499
0.95 0.41 -0.0121954
0.97 0.41 -0.0120929
0.99 0.41 -0.0120418
0.01 0.43 -0.0122595
0.03 0.43 -0.0123124
0.05 0.43 -0.0124183
0.07 0.43 -0.012578
0.09 0.43 -0.0127924
0.11 0.43 -0.0130626
0.13 0.43 -0.0133901
0.15 0.43 -0.0137761
0.17 0.43 -0.0142219
0.19 0.43 -0.0147284
0.21 0.43 -0.0152956
0.23 0.43 -0.0159224
0.25 0.43 -0.0166059
0.27 0.43 -0.017341
0.29 0.43 -0.0181197
0.31 0.43 -0.0189306
0.33 0.43 -0.0197587
0.35 0.43 -0.0205854
0.37 0.43 -0.0213887
0.39 0.43 -0.0221444
0.41 0.43 -0.0228266
0.43 0.43 -0.0234099
0.45 0.43 -0.023871
0.47 0.43 -0.0241902
0.49 0.43 -0.0243534
0.51 0.43 -0.0243534
0.53 0.43 -0.0241902
0.55 0.43 -0.023871
0.57 0.43 -0.0234099
0.59 0.43 -0.0228266
0.61 0.43 -0.0221444
0.63 0.43 -0.0213887
0.65 0.43 -0.0205854
0.67 0.43 -0.0197587
0.69 0.43 -0.0189306
0.71 0.43 -0.0181197
0.73 0.43 -0.017341
0.75 0.43 -0.0166059
0.77 0.43 -0.0159223
0.79 0.43 -0.0152955
0.81 0.43 -0.0147283
0.83 0.43 -0.0142219
0.85 0.43 -0.013776
0.87 0.43 -0.01339
0.89 0.43 -0.0130626
0.91 0.43 -0.0127924
0.93 0.43 -0.012578
0.95 0.43 -0.0124183
0.97 0.43 -0.0123123
0.99 0.43 -0.0122595
0.01 0.45 -0.0124244
0.03 0.45 -0.0124785
0.05 0.45 -0.0125871
0.07 0.45 -0.0127509
0.09 0.45 -0.0129709
0.11 0.45 -0.0132483
0.13 0.45 -0.0135847
0.15 0.45 -0.0139818
0.17 0.45 -0.0144408
0.19 0.45 -0.0149629
0.21 0.45 -0.0155483
0.23 0.45 -0.0161962
0.25 0.45 -0.0169036
0.27 0.45 -0.0176655
0.29 0.45 -0.0184737
0.31 0.45 -0.0193165
0.33 0.45 -0.0201782
0.35 0.45 -0.0210395
0.37 0.45 -0.0218774
0.39 0.45 -0.0226662
0.41 0.45 -0.023379
0.43 0.45 -0.0239888
0.45 0.45 -0.0244711
0.47 0.45 -0.0248051
0.49 0.45 -0.024976
0.51 0.45 -0.024976
0.53 0.45 -0.0248051
0.55 0.45 -0.0244711
0.57 0.45 -0.0239888
0.59 0.45 -0.023379
0.61 0.45 -0.0226662
0.63 0.45 -0.0218774
0.65 0.45 -0.0210395
0.67 0.45 -0.0201782
0.69 0.45 -0.0193165
0.71 0.45 -0.0184737
0.73 0.45 -0.0176655
0.75 0.45 -0.0169036
0.77 0.45 -0.0161961
0.79 0.45 -0.0155483
0.81 0.45 -0.0149629
0.83 0.45 -0.0144408
0.85 0.45 -0.0139817
0.87 0.45 -0.0135847
0.89 0.45 -0.0132483
0.91 0.45 -0.0129708
0.93 0.45 -0.0127509
0.95 0.45 -0.0125871
0.97 0.45 -0.0124785
0.99 0.45 -0.0124244
0.01 0.47 -0.0125351
0.03 0.47 -0.0125901
0.05 0.47 -0.0127005
0.07 0.47 -0.0128671
0.09 0.47 -0.0130908
0.11 0.47 -0.0133732
0.13 0.47 -0.0137158
0.15 0.47 -0.0141204
0.17 0.47 -0.0145885
0.19 0.47 -0.0151214
0.21 0.47 -0.0157194
0.23 0.47 -0.0163818
0.25 0.47 -0.0171058
0.27 0.47 -0.0178863
0.29 0.47 -0.0187149
0.31 0.47 -0.0195798
0.33 0.47 -0.0204649
0.35 0.47 -0.0213503
0.37 0.47 -0.0222122
0.39 0.47 -0.0230242
0.41 0.47 -0.0237582
0.43 0.47 -0.0243866
0.45 0.47 -0.0248837
0.47 0.47 -0.025228
0.49 0.47 -0.0254043
0.51 0.47 -0.0254043
0.53 0.47 -0.025228
0.55 0.47 -0.0248837
0.57 0.47 -0.0243866
0.59 0.47 -0.0237582
0.61 0.47 -0.0230242
0.63 0.47 -0.0222122
0.65 0.47 -0.0213503
0.67 0.47 -0.0204649
0.69 0.47 -0.0195798
0.71 0.47 -0.0187149
0.73 0.47 -0.0178863
0.75 0.47 -0.0171058
0.77 0.47 -0.0163818
0.79 0.47 -0.0157194
0.81 0.47 -0.0151213
0.83 0.47 -0.0145885
0.85 0.47 -0.0141204
0.87 0.47 -0.0137158
0.89 0.47 -0.0133732
0.91 0.47 -0.0130908
0.93 0.47 -0.012867
0.95 0.47 -0.0127005
0.97 0.47 -0.0125901
0.99 0.47 -0.012535
0.01 0.49 -0.0125906
0.03 0.49 -0.0126461
0.05 0.49 -0.0127575
0.07 0.49 -0.0129254
0.09 0.49 -0.0131511
0.11 0.49 -0.013436
0.13 0.49 -0.0137818
0.15 0.49 -0.0141902
0.17 0.49 -0.0146629
0.19 0.49 -0.0152013
0.21 0.49 -0.0158057
0.23 0.49 -0.0164755
0.25 0.49 -0.017208
0.27 0.49 -0.017998
0.29 0.49 -0.0188372
0.31 0.49 -0.0197134
0.33 0.49 -0.0206105
0.35 0.49 -0.0215082
0.37 0.49 -0.0223824
0.39 0.49 -0.0232063
0.41 0.49 -0.0239513
0.43 0.49 -0.0245892
0.45 0.49 -0.0250939
0.47 0.49 -0.0254435
0.49 0.49 -0.0256225
0.51 0.49 -0.0256225
0.53 0.49 -0.0254435
0.55 0.49 -0.0250939
0.57 0.49 -0.0245892
0.59 0.49 -0.0239513
0.61 0.49 -0.0232063
0.63 0.49 -0.0223824
0.65 0.49 -0.0215082
0.67 0.49 -0.0206105
0.69 0.49 -0.0197134
0.71 0.49 -0.0188371
0.73 0.49 -0.017998
0.75 0.49 -0.017208
0.77 0.49 -0.0164755
0.79 0.49 -0.0158057
0.81 0.49 -0.0152012
0.83 0.49 -0.0146629
0.85 0.49 -0.0141902
0.87 0.49 -0.0137818
0.89 0.49 -0.013436
0.91 0.49 -0.0131511
0.93 0.49 -0.0129254
0.95 0.49 -0.0127574
0.97 0.49 -0.0126461
0.99 0.49 -0.0125906
0.01 0.51 -0.0125906
0.03 0.51 -0.0126461
0.05 0.51 -0.0127575
0.07 0.51 -0.0129254
0.09 0.51 -0.0131511
0.11 0.51 -0.013436
0.13 0.51 -0.0137818
0.15 0.51 -0.0141902
0.17 0.51 -0.0146629
0.19 0.51 -0.0152013
0.21 0.51 -0.0158057
0.23 0.51 -0.0164755
0.25 0.51 -0.017208
0.27 0.51 -0.017998
0.29 0.51 -0.0188372
0.31 0.51 -0.0197134
0.33 0.51 -0.0206105
0.35 0.51 -0.0215082
0.37 0.51 -0.0223824
0.39 0.51 -0.0232063
0.41 0.51 -0.0239513
0.43 0.51 -0.0245892
0.45 0.51 -0.0250939
0.47 0.51 -0.0254435
0.49 0.51 -0.0256225
0.51 0.51 -0.0256225
0.53 0.51 -0.0254435
0.55 0.51 -0.0250939
0.57 0.51 -0.0245892
0.59 0.51 -0.0239513
0.61 0.51 -0.0232063
0.63 0.51 -0.0223824
0.65 0.51 -0.0215082
0.67 0.51 -0.0206105
0.69 0.51 -0.0197134
0.71 0.51 -0.0188371
0.73 0.51 -0.017998
0.75 0.51 -0.017208
0.77 0.51 -0.0164755
0.79 0.51 -0.0158057
0.81 0.51 -0.0152012
0.83 0.51 -0.0146629
0.85 0.51 -0.0141902
0.87 0.51 -0.0137818
0.89 0.51 -0.013436
0.91 0.51 -0.0131511
0.93 0.51 -0.0129254
0.95 0.51 -0.0127574
0.97 0.51 -0.0126461
0.99 0.51 -0.0125906
0.01 0.53 -0.0125351
0.03 0.53 -0.0125901
0.05 0.53 -0.0127005
0.07 0.53 -0.0128671
0.09 0.53 -0.0130908
0.11 0.53 -0.0133732
0.13 0.53 -0.0137158
0.15 0.53 -0.0141204
0.17 0.53 -0.0145885
0.19 0.53 -0.0151214
0.21 0.53 -0.0157194
0.23 0.53 -0.0163818
0.25 0.53 -0.0171058
0.27 0.53 -0.0178863
0.29 0.53 -0.0187149
0.31 0.53 -0.0195798
0.33 0.53 -0.0204649
0.35 0.53 -0.0213503
0.37 0.53 -0.0222122
0.39 0.53 -0.0230242
0.41 0.53 -0.0237582
0.43 0.53 -0.0243866
0.45 0.53 -0.0248837
0.47 0.53 -0.025228
0.49 0.53 -0.0254043
0.51 0.53 -0.0254043
0.53 0.53 -0.025228
0.55 0.53 -0.0248837
0.57 0.53 -0.0243866
0.59 0.53 -0.0237582
0.61 0.53 -0.0230242
0.63 0.53 -0.0222122
0.65 0.53 -0.0213503
0.67 0.53 -0.0204649
0.69 0.53 -0.0195798
0.71 0.53 -0.0187149
0.73 0.53 -0.0178863
0.75 0.53 -0.0171058
0.77 0.53 -0.0163818
0.79 0.53 -0.0157194
0.81 0.53 -0.0151213
0.83 0.53 -0.0145885
0.85 0.53 -0.0141204
0.87 0.53 -0.0137158
0.89 0.53 -0.0133732
0.91 0.53 -0.0130908
0.93 0.53 -0.012867
0.95 0.53 -0.0127005
0.97 0.53 -0.0125901
0.99 0.53 -0.012535
0.01 0.55 -0.0124244
0.03 0.55 -0.0124785
0.05 0.55 -0.0125871
0.07 0.55 -0.0127509
0.09 0.55 -0.0129709
0.11 0.55 -0.0132483
0.13 0.55 -0.0135847
0.15 0.55 -0.0139818
0.17 0.55 -0.0144408
0.19 0.55 -0.0149629
0.21 0.55 -0.0155483
0.23 0.55 -0.0161962
0.25 0.55 -0.0169036
0.27 0.55 -0.0176655
0.29 0.55 -0.0184737
0.31 0.55 -0.0193165
0.33 0.55 -0.0201782
0.35 0.55 -0.0210395
0.37 0.55 -0.0218774
0.39 0.55 -0.0226662
0.41 0.55 -0.023379
0.43 0.55 -0.0239888
0.45 0.55 -0.0244711
0.47 0.55 -0.0248051
0.49 0.55 -0.024976
0.51 0.55 -0.024976
0.53 0.55 -0.0248051
0.55 0.55 -0.0244711
0.57 0.55 -0.0239888
0.59 0.55 -0.023379
0.61 0.55 -0.0226662
0.63 0.55 -0.0218774
0.65 0.55 -0.0210395
0.67 0.55 -0.0201782
0.69 0.55 -0.0193165
0.71 0.55 -0.0184737
0.73 0.55 -0.0176655
0.75 0.55 -0.0169036
0.77 0.55 -0.0161961
0.79 0.55 -0.0155483
0.81 0.55 -0.0149629
0.83 0.55 -0.0144408
0.85 0.55 -0.0139817
0.87 0.55 -0.0135847
0.89 0.55 -0.0132483
0.91 0.55 -0.0129708
0.93 0.55 -0.0127509
0.95 0.55 -0.0125871
0.97 0.55 -0.0124785
0.99 0.55 -0.0124244
0.01 0.57 -0.0122595
0.03 0.57 -0.0123124