Variables = x, y, u
ZONE I= 50 J= 50 F=point
0.01 0.01 -0.00037453
0.03 0.01 -0.000375558
0.05 0.01 -0.000377605
0.07 0.01 -0.000380655
0.09 0.01 -0.000384681
0.11 0.01 -0.000389646
0.13 0.01 -0.000395506
0.15 0.01 -0.000402201
0.17 0.01 -0.000409662
0.19 0.01 -0.000417806
0.21 0.01 -0.000426536
0.23 0.01 -0.000435743
0.25 0.01 -0.000445299
0.27 0.01 -0.000455067
0.29 0.01 -0.000464894
0.31 0.01 -0.000474617
0.33 0.01 -0.000484063
0.35 0.01 -0.000493055
0.37 0.01 -0.000501415
0.39 0.01 -0.000508968
0.41 0.01 -0.000515551
0.43 0.01 -0.000521015
0.45 0.01 -0.000525232
0.47 0.01 -0.000528102
0.49 0.01 -0.000529555
0.51 0.01 -0.000529555
0.53 0.01 -0.000528102
0.55 0.01 -0.000525232
0.57 0.01 -0.000521015
0.59 0.01 -0.000515551
0.61 0.01 -0.000508968
0.63 0.01 -0.000501415
0.65 0.01 -0.000493055
0.67 0.01 -0.000484063
0.69 0.01 -0.000474617
0.71 0.01 -0.000464894
0.73 0.01 -0.000455067
0.75 0.01 -0.000445299
0.77 0.01 -0.000435743
0.79 0.01 -0.000426536
0.81 0.01 -0.000417806
0.83 0.01 -0.000409662
0.85 0.01 -0.000402201
0.87 0.01 -0.000395506
0.89 0.01 -0.000389646
0.91 0.01 -0.000384681
0.93 0.01 -0.000380655
0.95 0.01 -0.000377605
0.97 0.01 -0.000375558
0.99 0.01 -0.00037453
0.01 0.03 -0.00112256
0.03 0.03 -0.00112565
0.05 0.03 -0.00113181
0.07 0.03 -0.00114099
0.09 0.03 -0.0011531
0.11 0.03 -0.00116805
0.13 0.03 -0.00118568
0.15 0.03 -0.00120584
0.17 0.03 -0.0012283
0.19 0.03 -0.00125283
0.21 0.03 -0.00127913
0.23 0.03 -0.00130687
0.25 0.03 -0.00133568
0.27 0.03 -0.00136513
0.29 0.03 -0.00139477
0.31 0.03 -0.0014241
0.33 0.03 -0.00145261
0.35 0.03 -0.00147976
0.37 0.03 -0.001505
0.39 0.03 -0.00152782
0.41 0.03 -0.00154771
0.43 0.03 -0.00156422
0.45 0.03 -0.00157696
0.47 0.03 -0.00158564
0.49 0.03 -0.00159003
0.51 0.03 -0.00159003
0.53 0.03 -0.00158564
0.55 0.03 -0.00157696
0.57 0.03 -0.00156422
0.59 0.03 -0.00154771
0.61 0.03 -0.00152782
0.63 0.03 -0.001505
0.65 0.03 -0.00147976
0.67 0.03 -0.00145261
0.69 0.03 -0.0014241
0.71 0.03 -0.00139477
0.73 0.03 -0.00136513
0.75 0.03 -0.00133568
0.77 0.03 -0.00130687
0.79 0.03 -0.00127913
0.81 0.03 -0.00125283
0.83 0.03 -0.0012283
0.85 0.03 -0.00120584
0.87 0.03 -0.00118568
0.89 0.03 -0.00116805
0.91 0.03 -0.0011531
0.93 0.03 -0.00114099
0.95 0.03 -0.00113181
0.97 0.03 -0.00112565
0.99 0.03 -0.00112256
0.01 0.05 -0.0018675
0.03 0.05 -0.00187269
0.05 0.05 -0.00188301
0.07 0.05 -0.00189839
0.09 0.05 -0.00191869
0.11 0.05 -0.00194375
0.13 0.05 -0.00197334
0.15 0.05 -0.00200716
0.17 0.05 -0.00204487
0.19 0.05 -0.00208607
0.21 0.05 -0.00213027
0.23 0.05 -0.00217692
0.25 0.05 -0.00222539
0.27 0.05 -0.00227498
0.29 0.05 -0.00232491
0.31 0.05 -0.00237436
0.33 0.05 -0.00242246
0.35 0.05 -0.00246828
0.37 0.05 -0.00251092
0.39 0.05 -0.00254948
0.41 0.05 -0.00258311
0.43 0.05 -0.00261103
0.45 0.05 -0.0026326
0.47 0.05 -0.00264728
0.49 0.05 -0.00265472
0.51 0.05 -0.00265472
0.53 0.05 -0.00264728
0.55 0.05 -0.0026326
0.57 0.05 -0.00261103
0.59 0.05 -0.00258311
0.61 0.05 -0.00254948
0.63 0.05 -0.00251092
0.65 0.05 -0.00246828
0.67 0.05 -0.00242246
0.69 0.05 -0.00237436
0.71 0.05 -0.00232491
0.73 0.05 -0.00227498
0.75 0.05 -0.00222539
0.77 0.05 -0.00217692
0.79 0.05 -0.00213027
0.81 0.05 -0.00208607
0.83 0.05 -0.00204487
0.85 0.05 -0.00200716
0.87 0.05 -0.00197334
0.89 0.05 -0.00194375
0.91 0.05 -0.00191869
0.93 0.05 -0.00189839
0.95 0.05 -0.00188301
0.97 0.05 -0.00187269
0.99 0.05 -0.0018675
0.01 0.07 -0.00260726
0.03 0.07 -0.00261458
0.05 0.07 -0.00262915
0.07 0.07 -0.00265086
0.09 0.07 -0.00267954
0.11 0.07 -0.00271494
0.13 0.07 -0.00275675
0.15 0.07 -0.00280458
0.17 0.07 -0.00285796
0.19 0.07 -0.0029163
0.21 0.07 -0.00297895
0.23 0.07 -0.00304513
0.25 0.07 -0.00311395
0.27 0.07 -0.00318443
0.29 0.07 -0.00325547
0.31 0.07 -0.0033259
0.33 0.07 -0.00339445
0.35 0.07 -0.00345984
0.37 0.07 -0.00352074
0.39 0.07 -0.00357585
0.41 0.07 -0.00362396
0.43 0.07 -0.00366394
0.45 0.07 -0.00369482
0.47 0.07 -0.00371586
0.49 0.07 -0.00372651
0.51 0.07 -0.00372651
0.53 0.07 -0.00371586
0.55 0.07 -0.00369482
0.57 0.07 -0.00366394
0.59 0.07 -0.00362396
0.61 0.07 -0.00357585
0.63 0.07 -0.00352074
0.65 0.07 -0.00345984
0.67 0.07 -0.00339445
0.69 0.07 -0.0033259
0.71 0.07 -0.00325547
0.73 0.07 -0.00318443
0.75 0.07 -0.00311395
0.77 0.07 -0.00304513
0.79 0.07 -0.00297895
0.81 0.07 -0.0029163
0.83 0.07 -0.00285796
0.85 0.07 -0.00280458
0.87 0.07 -0.00275675
0.89 0.07 -0.00271494
0.91 0.07 -0.00267954
0.93 0.07 -0.00265086
0.95 0.07 -0.00262915
0.97 0.07 -0.00261458
0.99 0.07 -0.00260726
0.01 0.09 -0.00333971
0.03 0.09 -0.00334921
0.05 0.09 -0.00336815
0.07 0.09 -0.00339637
0.09 0.09 -0.00343365
0.11 0.09 -0.00347971
0.13 0.09 -0.00353414
0.15 0.09 -0.00359646
0.17 0.09 -0.00366606
0.19 0.09 -0.00374222
0.21 0.09 -0.00382408
0.23 0.09 -0.00391065
0.25 0.09 -0.00400079
0.27 0.09 -0.00409322
0.29 0.09 -0.00418651
0.31 0.09 -0.00427912
0.33 0.09 -0.0043694
0.35 0.09 -0.0044556
0.37 0.09 -0.00453599
0.39 0.09 -0.00460884
0.41 0.09 -0.00467247
0.43 0.09 -0.00472541
0.45 0.09 -0.00476633
0.47 0.09 -0.00479422
0.49 0.09 -0.00480835
0.51 0.09 -0.00480835
0.53 0.09 -0.00479422
0.55 0.09 -0.00476633
0.57 0.09 -0.00472541
0.59 0.09 -0.00467247
0.61 0.09 -0.00460884
0.63 0.09 -0.00453599
0.65 0.09 -0.0044556
0.67 0.09 -0.0043694
0.69 0.09 -0.00427912
0.71 0.09 -0.00418651
0.73 0.09 -0.00409322
0.75 0.09 -0.00400079
0.77 0.09 -0.00391065
0.79 0.09 -0.00382408
0.81 0.09 -0.00374222
0.83 0.09 -0.00366606
0.85 0.09 -0.00359646
0.87 0.09 -0.00353414
0.89 0.09 -0.00347971
0.91 0.09 -0.00343365
0.93 0.09 -0.00339637
0.95 0.09 -0.00336815
0.97 0.09 -0.00334921
0.99 0.09 -0.00333971
0.01 0.11 -0.00406267
0.03 0.11 -0.00407442
0.05 0.11 -0.00409786
0.07 0.11 -0.0041328
0.09 0.11 -0.004179
0.11 0.11 -0.00423611
0.13 0.11 -0.00430365
0.15 0.11 -0.00438105
0.17 0.11 -0.00446758
0.19 0.11 -0.00456239
0.21 0.11 -0.00466443
0.23 0.11 -0.00477251
0.25 0.11 -0.00488521
0.27 0.11 -0.00500097
0.29 0.11 -0.00511801
0.31 0.11 -0.00523438
0.33 0.11 -0.005348
0.35 0.11 -0.00545669
0.37 0.11 -0.00555819
0.39 0.11 -0.00565029
0.41 0.11 -0.00573086
0.43 0.11 -0.00579795
0.45 0.11 -0.00584986
0.47 0.11 -0.00588526
0.49 0.11 -0.0059032
0.51 0.11 -0.0059032
0.53 0.11 -0.00588526
0.55 0.11 -0.00584986
0.57 0.11 -0.00579795
0.59 0.11 -0.00573086
0.61 0.11 -0.00565029
0.63 0.11 -0.00555819
0.65 0.11 -0.00545669
0.67 0.11 -0.005348
0.69 0.11 -0.00523438
0.71 0.11 -0.00511801
0.73 0.11 -0.00500097
0.75 0.11 -0.00488521
0.77 0.11 -0.00477251
0.79 0.11 -0.00466443
0.81 0.11 -0.00456239
0.83 0.11 -0.00446758
0.85 0.11 -0.00438105
0.87 0.11 -0.00430365
0.89 0.11 -0.00423611
0.91 0.11 -0.004179
0.93 0.11 -0.0041328
0.95 0.11 -0.00409786
0.97 0.11 -0.00407442
0.99 0.11 -0.00406267
0.01 0.13 -0.00477386
0.03 0.13 -0.00478796
0.05 0.13 -0.00481606
0.07 0.13 -0.00485799
0.09 0.13 -0.00491345
0.11 0.13 -0.00498206
0.13 0.13 -0.00506328
0.15 0.13 -0.00515647
0.17 0.13 -0.00526079
0.19 0.13 -0.00537526
0.21 0.13 -0.00549866
0.23 0.13 -0.00562959
0.25 0.13 -0.00576638
0.27 0.13 -0.00590714
0.29 0.13 -0.00604975
0.31 0.13 -0.00619183
0.33 0.13 -0.00633084
0.35 0.13 -0.00646406
0.37 0.13 -0.00658871
0.39 0.13 -0.00670201
0.41 0.13 -0.00680127
0.43 0.13 -0.00688403
0.45 0.13 -0.00694813
0.47 0.13 -0.00699187
0.49 0.13 -0.00701405
0.51 0.13 -0.00701405
0.53 0.13 -0.00699187
0.55 0.13 -0.00694813
0.57 0.13 -0.00688403
0.59 0.13 -0.00680127
0.61 0.13 -0.00670201
0.63 0.13 -0.00658871
0.65 0.13 -0.00646406
0.67 0.13 -0.00633084
0.69 0.13 -0.00619183
0.71 0.13 -0.00604975
0.73 0.13 -0.00590714
0.75 0.13 -0.00576638
0.77 0.13 -0.00562959
0.79 0.13 -0.00549866
0.81 0.13 -0.00537526
0.83 0.13 -0.00526079
0.85 0.13 -0.00515647
0.87 0.13 -0.00506328
0.89 0.13 -0.00498206
0.91 0.13 -0.00491345
0.93 0.13 -0.00485799
0.95 0.13 -0.00481606
0.97 0.13 -0.00478796
0.99 0.13 -0.00477386
0.01 0.15 -0.00547097
0.03 0.15 -0.00548749
0.05 0.15 -0.00552045
0.07 0.15 -0.00556964
0.09 0.15 -0.00563475
0.11 0.15 -0.00571537
0.13 0.15 -0.00581093
0.15 0.15 -0.00592071
0.17 0.15 -0.0060438
0.19 0.15 -0.00617908
0.21 0.15 -0.0063252
0.23 0.15 -0.00648054
0.25 0.15 -0.0066432
0.27 0.15 -0.00681096
0.29 0.15 -0.00698131
0.31 0.15 -0.00715143
0.33 0.15 -0.00731826
0.35 0.15 -0.00747851
0.37 0.15 -0.00762876
0.39 0.15 -0.00776559
0.41 0.15 -0.00788569
0.43 0.15 -0.00798596
0.45 0.15 -0.00806373
0.47 0.15 -0.00811684
0.49 0.15 -0.00814378
0.51 0.15 -0.00814378
0.53 0.15 -0.00811684
0.55 0.15 -0.00806373
0.57 0.15 -0.00798596
0.59 0.15 -0.00788569
0.61 0.15 -0.00776559
0.63 0.15 -0.00762876
0.65 0.15 -0.00747851
0.67 0.15 -0.00731826
0.69 0.15 -0.00715143
0.71 0.15 -0.00698131
0.73 0.15 -0.00681096
0.75 0.15 -0.0066432
0.77 0.15 -0.00648054
0.79 0.15 -0.0063252
0.81 0.15 -0.00617908
0.83 0.15 -0.0060438
0.85 0.15 -0.00592071
0.87 0.15 -0.00581093
0.89 0.15 -0.00571537
0.91 0.15 -0.00563475
0.93 0.15 -0.00556964
0.95 0.15 -0.00552045
0.97 0.15 -0.00548749
0.99 0.15 -0.00547097
0.01 0.17 -0.00615155
0.03 0.17 -0.0061706
0.05 0.17 -0.0062086
0.07 0.17 -0.00626535
0.09 0.17 -0.00634054
0.11 0.17 -0.00643373
0.13 0.17 -0.00654433
0.15 0.17 -0.00667157
0.17 0.17 -0.00681449
0.19 0.17 -0.00697188
0.21 0.17 -0.00714224
0.23 0.17 -0.00732376
0.25 0.17 -0.0075143
0.27 0.17 -0.00771133
0.29 0.17 -0.00791192
0.31 0.17 -0.00811279
0.33 0.17 -0.00831027
0.35 0.17 -0.00850044
0.37 0.17 -0.00867919
0.39 0.17 -0.00884233
0.41 0.17 -0.00898579
0.43 0.17 -0.00910577
0.45 0.17 -0.00919895
0.47 0.17 -0.00926265
0.49 0.17 -0.00929498
0.51 0.17 -0.00929498
0.53 0.17 -0.00926265
0.55 0.17 -0.00919895
0.57 0.17 -0.00910577
0.59 0.17 -0.00898579
0.61 0.17 -0.00884233
0.63 0.17 -0.00867919
0.65 0.17 -0.00850044
0.67 0.17 -0.00831027
0.69 0.17 -0.00811279
0.71 0.17 -0.00791192
0.73 0.17 -0.00771133
0.75 0.17 -0.0075143
0.77 0.17 -0.00732376
0.79 0.17 -0.00714224
0.81 0.17 -0.00697188
0.83 0.17 -0.00681449
0.85 0.17 -0.00667157
0.87 0.17 -0.00654433
0.89 0.17 -0.00643373
0.91 0.17 -0.00634054
0.93 0.17 -0.00626535
0.95 0.17 -0.0062086
0.97 0.17 -0.0061706
0.99 0.17 -0.00615155
0.01 0.19 -0.00681309
0.03 0.19 -0.00683476
0.05 0.19 -0.006878
0.07 0.19 -0.00694262
0.09 0.19 -0.00702831
0.11 0.19 -0.00713464
0.13 0.19 -0.00726101
0.15 0.19 -0.00740665
0.17 0.19 -0.00757054
0.19 0.19 -0.0077514
0.21 0.19 -0.00794764
0.23 0.19 -0.00815728
0.25 0.19 -0.00837794
0.27 0.19 -0.00860675
0.29 0.19 -0.00884039
0.31 0.19 -0.00907502
0.33 0.19 -0.00930638
0.35 0.19 -0.00952979
0.37 0.19 -0.00974034
0.39 0.19 -0.00993296
0.41 0.19 -0.0101027
0.43 0.19 -0.0102449
0.45 0.19 -0.0103556
0.47 0.19 -0.0104313
0.49 0.19 -0.0104697
0.51 0.19 -0.0104697
0.53 0.19 -0.0104313
0.55 0.19 -0.0103556
0.57 0.19 -0.0102449
0.59 0.19 -0.0101027
0.61 0.19 -0.00993296
0.63 0.19 -0.00974034
0.65 0.19 -0.00952979
0.67 0.19 -0.00930638
0.69 0.19 -0.00907502
0.71 0.19 -0.00884039
0.73 0.19 -0.00860675
0.75 0.19 -0.00837794
0.77 0.19 -0.00815728
0.79 0.19 -0.00794764
0.81 0.19 -0.0077514
0.83 0.19 -0.00757054
0.85 0.19 -0.00740665
0.87 0.19 -0.00726101
0.89 0.19 -0.00713464
0.91 0.19 -0.00702831
0.93 0.19 -0.00694262
0.95 0.19 -0.006878
0.97 0.19 -0.00683476
0.99 0.19 -0.00681309
0.01 0.21 -0.00745297
0.03 0.21 -0.00747735
0.05 0.21 -0.00752602
0.07 0.21 -0.0075988
0.09 0.21 -0.00769541
0.11 0.21 -0.00781544
0.13 0.21 -0.00795832
0.15 0.21 -0.00812328
0.17 0.21 -0.0083093
0.19 0.21 -0.00851508
0.21 0.21 -0.00873892
0.23 0.21 -0.00897872
0.25 0.21 -0.00923187
0.27 0.21 -0.00949518
0.29 0.21 -0.0097649
0.31 0.21 -0.0100366
0.33 0.21 -0.0103054
0.35 0.21 -0.0105657
0.37 0.21 -0.0108117
0.39 0.21 -0.0110374
0.41 0.21 -0.0112367
0.43 0.21 -0.0114041
0.45 0.21 -0.0115344
0.47 0.21 -0.0116237
0.49 0.21 -0.0116691
0.51 0.21 -0.0116691
0.53 0.21 -0.0116237
0.55 0.21 -0.0115344
0.57 0.21 -0.0114041
0.59 0.21 -0.0112367
0.61 0.21 -0.0110374
0.63 0.21 -0.0108117
0.65 0.21 -0.0105657
0.67 0.21 -0.0103054
0.69 0.21 -0.0100366
0.71 0.21 -0.0097649
0.73 0.21 -0.00949518
0.75 0.21 -0.00923187
0.77 0.21 -0.00897872
0.79 0.21 -0.00873892
0.81 0.21 -0.00851508
0.83 0.21 -0.0083093
0.85 0.21 -0.00812328
0.87 0.21 -0.00795832
0.89 0.21 -0.00781544
0.91 0.21 -0.00769541
0.93 0.21 -0.0075988
0.95 0.21 -0.00752602
0.97 0.21 -0.00747735
0.99 0.21 -0.00745297
0.01 0.23 -0.00806847
0.03 0.23 -0.00809564
0.05 0.23 -0.00814991
0.07 0.23 -0.00823112
0.09 0.23 -0.00833905
0.11 0.23 -0.00847331
0.13 0.23 -0.00863339
0.15 0.23 -0.00881857
0.17 0.23 -0.00902786
0.19 0.23 -0.00925996
0.21 0.23 -0.00951314
0.23 0.23 -0.00978518
0.25 0.23 -0.0100733
0.27 0.23 -0.0103739
0.29 0.23 -0.0106829
0.31 0.23 -0.0109952
0.33 0.23 -0.0113052
0.35 0.23 -0.0116064
0.37 0.23 -0.0118918
0.39 0.23 -0.0121544
0.41 0.23 -0.0123869
0.43 0.23 -0.0125824
0.45 0.23 -0.012735
0.47 0.23 -0.0128396
0.49 0.23 -0.0128929
0.51 0.23 -0.0128929
0.53 0.23 -0.0128396
0.55 0.23 -0.012735
0.57 0.23 -0.0125824
0.59 0.23 -0.0123869
0.61 0.23 -0.0121544
0.63 0.23 -0.0118918
0.65 0.23 -0.0116064
0.67 0.23 -0.0113052
0.69 0.23 -0.0109952
0.71 0.23 -0.0106829
0.73 0.23 -0.0103739
0.75 0.23 -0.0100733
0.77 0.23 -0.00978518
0.79 0.23 -0.00951314
0.81 0.23 -0.00925996
0.83 0.23 -0.00902786
0.85 0.23 -0.00881857
0.87 0.23 -0.00863339
0.89 0.23 -0.00847331
0.91 0.23 -0.00833905
0.93 0.23 -0.00823112
0.95 0.23 -0.00814991
0.97 0.23 -0.00809564
0.99 0.23 -0.00806847
0.01 0.25 -0.0086568
0.03 0.25 -0.00868683
0.05 0.25 -0.00874683
0.07 0.25 -0.00883671
0.09 0.25 -0.00895626
0.11 0.25 -0.0091052
0.13 0.25 -0.0092831
0.15 0.25 -0.00948932
0.17 0.25 -0.00972293
0.19 0.25 -0.00998269
0.21 0.25 -0.0102669
0.23 0.25 -0.0105732
0.25 0.25 -0.0108986
0.27 0.25 -0.0112394
0.29 0.25 -0.0115909
0.31 0.25 -0.0119474
0.33 0.25 -0.0123025
0.35 0.25 -0.0126486
0.37 0.25 -0.0129776
0.39 0.25 -0.0132811
0.41 0.25 -0.0135504
0.43 0.25 -0.0137775
0.45 0.25 -0.0139549
0.47 0.25 -0.0140768
0.49 0.25 -0.0141388
0.51 0.25 -0.0141388
0.53 0.25 -0.0140768
0.55 0.25 -0.0139549
0.57 0.25 -0.0137775
0.59 0.25 -0.0135504
0.61 0.25 -0.0132811
0.63 0.25 -0.0129776
0.65 0.25 -0.0126486
0.67 0.25 -0.0123025
0.69 0.25 -0.0119474
0.71 0.25 -0.0115909
0.73 0.25 -0.0112394
0.75 0.25 -0.0108986
0.77 0.25 -0.0105732
0.79 0.25 -0.0102669
0.81 0.25 -0.00998269
0.83 0.25 -0.00972293
0.85 0.25 -0.00948932
0.87 0.25 -0.0092831
0.89 0.25 -0.0091052
0.91 0.25 -0.00895626
0.93 0.25 -0.00883671
0.95 0.25 -0.00874683
0.97 0.25 -0.00868683
0.99 0.25 -0.0086568
0.01 0.27 -0.0092151
0.03 0.27 -0.00924803
0.05 0.27 -0.00931386
0.07 0.27 -0.00941254
0.09 0.27 -0.00954397
0.11 0.27 -0.00970794
0.13 0.27 -0.00990414
0.15 0.27 -0.010132
0.17 0.27 -0.0103909
0.19 0.27 -0.0106795
0.21 0.27 -0.0109961
0.23 0.27 -0.0113385
0.25 0.27 -0.0117036
0.27 0.27 -0.0120872
0.29 0.27 -0.0124843
0.31 0.27 -0.0128885
0.33 0.27 -0.0132923
0.35 0.27 -0.0136874
0.37 0.27 -0.0140641
0.39 0.27 -0.0144125
0.41 0.27 -0.0147225
0.43 0.27 -0.0149844
0.45 0.27 -0.0151894
0.47 0.27 -0.0153303
0.49 0.27 -0.0154021
0.51 0.27 -0.0154021
0.53 0.27 -0.0153303
0.55 0.27 -0.0151894
0.57 0.27 -0.0149844
0.59 0.27 -0.0147225
0.61 0.27 -0.0144125
0.63 0.27 -0.0140641
0.65 0.27 -0.0136874
0.67 0.27 -0.0132923
0.69 0.27 -0.0128885
0.71 0.27 -0.0124843
0.73 0.27 -0.0120872
0.75 0.27 -0.0117036
0.77 0.27 -0.0113385
0.79 0.27 -0.0109961
0.81 0.27 -0.0106795
0.83 0.27 -0.0103909
0.85 0.27 -0.010132
0.87 0.27 -0.00990414
0.89 0.27 -0.00970794
0.91 0.27 -0.00954397
0.93 0.27 -0.00941254
0.95 0.27 -0.00931386
0.97 0.27 -0.00924803
0.99 0.27 -0.0092151
0.01 0.29 -0.00974046
0.03 0.29 -0.00977631
0.05 0.29 -0.009848
0.07 0.29 -0.00995555
0.09 0.29 -0.010099
0.11 0.29 -0.0102781
0.13 0.29 -0.010493
0.15 0.29 -0.010743
0.17 0.29 -0.0110277
0.19 0.29 -0.011346
0.21 0.29 -0.0116963
0.23 0.29 -0.0120764
0.25 0.29 -0.0124829
0.27 0.29 -0.0129117
0.29 0.29 -0.0133571
0.31 0.29 -0.0138121
0.33 0.29 -0.0142683
0.35 0.29 -0.0147159
0.37 0.29 -0.0151441
0.39 0.29 -0.0155413
0.41 0.29 -0.0158955
0.43 0.29 -0.0161953
0.45 0.29 -0.0164303
0.47 0.29 -0.0165921
0.49 0.29 -0.0166746
0.51 0.29 -0.0166746
0.53 0.29 -0.0165921
0.55 0.29 -0.0164303
0.57 0.29 -0.0161953
0.59 0.29 -0.0158955
0.61 0.29 -0.0155413
0.63 0.29 -0.0151441
0.65 0.29 -0.0147159
0.67 0.29 -0.0142683
0.69 0.29 -0.0138121
0.71 0.29 -0.0133571
0.73 0.29 -0.0129117
0.75 0.29 -0.0124829
0.77 0.29 -0.0120764
0.79 0.29 -0.0116963
0.81 0.29 -0.011346
0.83 0.29 -0.0110277
0.85 0.29 -0.010743
0.87 0.29 -0.010493
0.89 0.29 -0.0102781
0.91 0.29 -0.010099
0.93 0.29 -0.00995555
0.95 0.29 -0.009848
0.97 0.29 -0.00977631
0.99 0.29 -0.00974046
0.01 0.31 -0.01023
0.03 0.31 -0.0102687
0.05 0.31 -0.0103462
0.07 0.31 -0.0104626
0.09 0.31 -0.0106179
0.11 0.31 -0.0108123
0.13 0.31 -0.0110458
0.15 0.31 -0.0113182
0.17 0.31 -0.011629
0.19 0.31 -0.0119775
0.21 0.31 -0.0123623
0.23 0.31 -0.012781
0.25 0.31 -0.0132305
0.27 0.31 -0.0137062
0.29 0.31 -0.014202
0.31 0.31 -0.0147103
0.33 0.31 -0.0152217
0.35 0.31 -0.015725
0.37 0.31 -0.016208
0.39 0.31 -0.0166571
0.41 0.31 -0.0170585
0.43 0.31 -0.0173989
0.45 0.31 -0.0176662
0.47 0.31 -0.0178504
0.49 0.31 -0.0179444
0.51 0.31 -0.0179444
0.53 0.31 -0.0178504
0.55 0.31 -0.0176662
0.57 0.31 -0.0173989
0.59 0.31 -0.0170585
0.61 0.31 -0.0166571
0.63 0.31 -0.016208
0.65 0.31 -0.015725
0.67 0.31 -0.0152217
0.69 0.31 -0.0147103
0.71 0.31 -0.014202
0.73 0.31 -0.0137062
0.75 0.31 -0.0132305
0.77 0.31 -0.012781
0.79 0.31 -0.0123623
0.81 0.31 -0.0119775
0.83 0.31 -0.011629
0.85 0.31 -0.0113182
0.87 0.31 -0.0110458
0.89 0.31 -0.0108123
0.91 0.31 -0.0106179
0.93 0.31 -0.0104626
0.95 0.31 -0.0103462
0.97 0.31 -0.0102687
0.99 0.31 -0.01023
0.01 0.33 -0.0106807
0.03 0.33 -0.0107223
0.05 0.33 -0.0108055
0.07 0.33 -0.0109305
0.09 0.33 -0.0110976
0.11 0.33 -0.0113069
0.13 0.33 -0.0115588
0.15 0.33 -0.0118533
0.17 0.33 -0.0121902
0.19 0.33 -0.012569
0.21 0.33 -0.0129883
0.23 0.33 -0.0134461
0.25 0.33 -0.0139392
0.27 0.33 -0.0144627
0.29 0.33 -0.0150103
0.31 0.33 -0.0155735
0.33 0.33 -0.0161419
0.35 0.33 -0.0167032
0.37 0.33 -0.0172431
0.39 0.33 -0.0177464
0.41 0.33 -0.0181973
0.43 0.33 -0.0185804
0.45 0.33 -0.0188817
0.47 0.33 -0.0190895
0.49 0.33 -0.0191955
0.51 0.33 -0.0191955
0.53 0.33 -0.0190895
0.55 0.33 -0.0188817
0.57 0.33 -0.0185804
0.59 0.33 -0.0181973
0.61 0.33 -0.0177464
0.63 0.33 -0.0172431
0.65 0.33 -0.0167032
0.67 0.33 -0.0161419
0.69 0.33 -0.0155735
0.71 0.33 -0.0150103
0.73 0.33 -0.0144627
0.75 0.33 -0.0139392
0.77 0.33 -0.0134461
0.79 0.33 -0.0129883
0.81 0.33 -0.012569
0.83 0.33 -0.0121902
0.85 0.33 -0.0118533
0.87 0.33 -0.0115588
0.89 0.33 -0.0113069
0.91 0.33 -0.0110976
0.93 0.33 -0.0109305
0.95 0.33 -0.0108055
0.97 0.33 -0.0107223
0.99 0.33 -0.0106807
0.01 0.35 -0.0110899
0.03 0.35 -0.0111342
0.05 0.35 -0.0112228
0.07 0.35 -0.0113561
0.09 0.35 -0.0115345
0.11 0.35 -0.0117583
0.13 0.35 -0.012028
0.15 0.35 -0.012344
0.17 0.35 -0.0127064
0.19 0.35 -0.0131148
0.21 0.35 -0.0135682
0.23 0.35 -0.0140647
0.25 0.35 -0.0146011
0.27 0.35 -0.0151724
0.29 0.35 -0.0157719
0.31 0.35 -0.0163904
0.33 0.35 -0.0170165
0.35 0.35 -0.0176364
0.37 0.35 -0.0182343
0.39 0.35 -0.018793
0.41 0.35 -0.0192945
0.43 0.35 -0.0197212
0.45 0.35 -0.0200573
0.47 0.35 -0.0202893
0.49 0.35 -0.0204078
0.51 0.35 -0.0204078
0.53 0.35 -0.0202893
0.55 0.35 -0.0200573
0.57 0.35 -0.0197212
0.59 0.35 -0.0192945
0.61 0.35 -0.018793
0.63 0.35 -0.0182343
0.65 0.35 -0.0176364
0.67 0.35 -0.0170165
0.69 0.35 -0.0163904
0.71 0.35 -0.0157719
0.73 0.35 -0.0151724
0.75 0.35 -0.0146011
0.77 0.35 -0.0140647
0.79 0.35 -0.0135682
0.81 0.35 -0.0131148
0.83 0.35 -0.0127064
0.85 0.35 -0.012344
0.87 0.35 -0.012028
0.89 0.35 -0.0117583
0.91 0.35 -0.0115345
0.93 0.35 -0.0113561
0.95 0.35 -0.0112228
0.97 0.35 -0.0111342
0.99 0.35 -0.0110899
0.01 0.37 -0.0114548
0.03 0.37 -0.0115016
0.05 0.37 -0.0115954
0.07 0.37 -0.0117365
0.09 0.37 -0.0119254
0.11 0.37 -0.0121629
0.13 0.37 -0.0124495
0.15 0.37 -0.0127859
0.17 0.37 -0.0131725
0.19 0.37 -0.0136093
0.21 0.37 -0.0140954
0.23 0.37 -0.0146293
0.25 0.37 -0.0152076
0.27 0.37 -0.0158255
0.29 0.37 -0.0164756
0.31 0.37 -0.0171483
0.33 0.37 -0.0178311
0.35 0.37 -0.0185089
0.37 0.37 -0.0191641
0.39 0.37 -0.0197776
0.41 0.37 -0.0203293
0.43 0.37 -0.0207995
0.45 0.37 -0.0211701
0.47 0.37 -0.0214263
0.49 0.37 -0.0215571
0.51 0.37 -0.0215571
0.53 0.37 -0.0214263
0.55 0.37 -0.0211701
0.57 0.37 -0.0207995
0.59 0.37 -0.0203293
0.61 0.37 -0.0197776
0.63 0.37 -0.0191641
0.65 0.37 -0.0185089
0.67 0.37 -0.0178311
0.69 0.37 -0.0171483
0.71 0.37 -0.0164756
0.73 0.37 -0.0158255
0.75 0.37 -0.0152076
0.77 0.37 -0.0146293
0.79 0.37 -0.0140954
0.81 0.37 -0.0136093
0.83 0.37 -0.0131725
0.85 0.37 -0.0127859
0.87 0.37 -0.0124495
0.89 0.37 -0.0121629
0.91 0.37 -0.0119254
0.93 0.37 -0.0117365
0.95 0.37 -0.0115954
0.97 0.37 -0.0115016
0.99 0.37 -0.0114548
0.01 0.39 -0.0117729
0.03 0.39 -0.011822
0.05 0.39 -0.0119204
0.07 0.39 -0.0120686
0.09 0.39 -0.0122673
0.11 0.39 -0.0125172
0.13 0.39 -0.0128193
0.15 0.39 -0.0131746
0.17 0.39 -0.0135836
0.19 0.39 -0.0140466
0.21 0.39 -0.0145633
0.23 0.39 -0.0151321
0.25 0.39 -0.0157498
0.27 0.39 -0.0164114
0.29 0.39 -0.0171095
0.31 0.39 -0.0178335
0.33 0.39 -0.0185702
0.35 0.39 -0.0193031
0.37 0.39 -0.0200131
0.39 0.39 -0.0206791
0.41 0.39 -0.0212789
0.43 0.39 -0.0217907
0.45 0.39 -0.0221947
0.47 0.39 -0.022474
0.49 0.39 -0.0226168
0.51 0.39 -0.0226168
0.53 0.39 -0.022474
0.55 0.39 -0.0221947
0.57 0.39 -0.0217907
0.59 0.39 -0.0212789
0.61 0.39 -0.0206791
0.63 0.39 -0.0200131
0.65 0.39 -0.0193031
0.67 0.39 -0.0185702
0.69 0.39 -0.0178335
0.71 0.39 -0.0171095
0.73 0.39 -0.0164114
0.75 0.39 -0.0157498
0.77 0.39 -0.0151321
0.79 0.39 -0.0145633
0.81 0.39 -0.0140466
0.83 0.39 -0.0135836
0.85 0.39 -0.0131746
0.87 0.39 -0.0128193
0.89 0.39 -0.0125172
0.91 0.39 -0.0122673
0.93 0.39 -0.0120686
0.95 0.39 -0.0119204
0.97 0.39 -0.011822
0.99 0.39 -0.0117729
0.01 0.41 -0.0120418
0.03 0.41 -0.0120929
0.05 0.41 -0.0121954
0.07 0.41 -0.0123499
0.09 0.41 -0.0125571
0.11 0.41 -0.0128181
0.13 0.41 -0.0131339
0.15 0.41 -0.0135059
0.17 0.41 -0.0139348
0.19 0.41 -0.0144214
0.21 0.41 -0.0149654
0.23 0.41 -0.0155655
0.25 0.41 -0.0162187
0.27 0.41 -0.0169199
0.29 0.41 -0.0176613
0.31 0.41 -0.0184321
0.33 0.41 -0.0192179
0.35 0.41 -0.0200011
0.37 0.41 -0.0207612
0.39 0.41 -0.0214752
0.41 0.41 -0.0221192
0.43 0.41 -0.0226693
0.45 0.41 -0.0231038
0.47 0.41 -0.0234045
0.49 0.41 -0.0235583
0.51 0.41 -0.0235583
0.53 0.41 -0.0234045
0.55 0.41 -0.0231038
0.57 0.41 -0.0226693
0.59 0.41 -0.0221192
0.61 0.41 -0.0214752
0.63 0.41 -0.0207612
0.65 0.41 -0.0200011
0.67 0.41 -0.0192179
0.69 0.41 -0.0184321
0.71 0.41 -0.0176613
0.73 0.41 -0.0169199
0.75 0.41 -0.0162187
0.77 0.41 -0.0155655
0.79 0.41 -0.0149654
0.81 0.41 -0.0144214
0.83 0.41 -0.0139348
0.85 0.41 -0.0135059
0.87 0.41 -0.0131339
0.89 0.41 -0.0128181
0.91 0.41 -0.0125571
0.93 0.41 -0.0123499
0.95 0.41 -0.0121954
0.97 0.41 -0.0120929
0.99 0.41 -0.0120418
0.01 0.43 -0.0122595
0.03 0.43 -0.0123123
0.05 0.43 -0.0124183
0.07 0.43 -0.012578
0.09 0.43 -0.0127923
0.11 0.43 -0.0130626
0.13 0.43 -0.01339
0.15 0.43 -0.013776
0.17 0.43 -0.0142218
0.19 0.43 -0.0147283
0.21 0.43 -0.0152955
0.23 0.43 -0.0159223
0.25 0.43 -0.0166058
0.27 0.43 -0.0173409
0.29 0.43 -0.0181196
0.31 0.43 -0.0189304
0.33 0.43 -0.0197585
0.35 0.43 -0.0205852
0.37 0.43 -0.0213886
0.39 0.43 -0.0221442
0.41 0.43 -0.0228265
0.43 0.43 -0.0234098
0.45 0.43 -0.0238708
0.47 0.43 -0.02419
0.49 0.43 -0.0243533
0.51 0.43 -0.0243533
0.53 0.43 -0.02419
0.55 0.43 -0.0238708
0.57 0.43 -0.0234098
0.59 0.43 -0.0228265
0.61 0.43 -0.0221442
0.63 0.43 -0.0213886
0.65 0.43 -0.0205852
0.67 0.43 -0.0197585
0.69 0.43 -0.0189304
0.71 0.43 -0.0181196
0.73 0.43 -0.0173409
0.75 0.43 -0.0166058
0.77 0.43 -0.0159223
0.79 0.43 -0.0152955
0.81 0.43 -0.0147283
0.83 0.43 -0.0142218
0.85 0.43 -0.013776
0.87 0.43 -0.01339
0.89 0.43 -0.0130626
0.91 0.43 -0.0127923
0.93 0.43 -0.012578
0.95 0.43 -0.0124183
0.97 0.43 -0.0123123
0.99 0.43 -0.0122595
0.01 0.45 -0.0124244
0.03 0.45 -0.0124785
0.05 0.45 -0.0125871
0.07 0.45 -0.0127509
0.09 0.45 -0.0129708
0.11 0.45 -0.0132483
0.13 0.45 -0.0135847
0.15 0.45 -0.0139817
0.17 0.45 -0.0144407
0.19 0.45 -0.0149628
0.21 0.45 -0.0155482
0.23 0.45 -0.0161961
0.25 0.45 -0.0169035
0.27 0.45 -0.0176654
0.29 0.45 -0.0184736
0.31 0.45 -0.0193164
0.33 0.45 -0.0201781
0.35 0.45 -0.0210394
0.37 0.45 -0.0218772
0.39 0.45 -0.0226661
0.41 0.45 -0.0233788
0.43 0.45 -0.0239887
0.45 0.45 -0.0244709
0.47 0.45 -0.024805
0.49 0.45 -0.0249759
0.51 0.45 -0.0249759
0.53 0.45 -0.024805
0.55 0.45 -0.0244709
0.57 0.45 -0.0239887
0.59 0.45 -0.0233788
0.61 0.45 -0.0226661
0.63 0.45 -0.0218772
0.65 0.45 -0.0210394
0.67 0.45 -0.0201781
0.69 0.45 -0.0193164
0.71 0.45 -0.0184736
0.73 0.45 -0.0176654
0.75 0.45 -0.0169035
0.77 0.45 -0.0161961
0.79 0.45 -0.0155482
0.81 0.45 -0.0149628
0.83 0.45 -0.0144407
0.85 0.45 -0.0139817
0.87 0.45 -0.0135847
0.89 0.45 -0.0132483
0.91 0.45 -0.0129708
0.93 0.45 -0.0127509
0.95 0.45 -0.0125871
0.97 0.45 -0.0124785
0.99 0.45 -0.0124244
0.01 0.47 -0.0125351
0.03 0.47 -0.0125901
0.05 0.47 -0.0127005
0.07 0.47 -0.012867
0.09 0.47 -0.0130908
0.11 0.47 -0.0133732
0.13 0.47 -0.0137158
0.15 0.47 -0.0141203
0.17 0.47 -0.0145884
0.19 0.47 -0.0151213
0.21 0.47 -0.0157193
0.23 0.47 -0.0163817
0.25 0.47 -0.0171057
0.27 0.47 -0.0178862
0.29 0.47 -0.0187148
0.31 0.47 -0.0195797
0.33 0.47 -0.0204648
0.35 0.47 -0.0213502
0.37 0.47 -0.0222121
0.39 0.47 -0.023024
0.41 0.47 -0.0237581
0.43 0.47 -0.0243865
0.45 0.47 -0.0248835
0.47 0.47 -0.0252279
0.49 0.47 -0.0254041
0.51 0.47 -0.0254041
0.53 0.47 -0.0252279
0.55 0.47 -0.0248835
0.57 0.47 -0.0243865
0.59 0.47 -0.0237581
0.61 0.47 -0.023024
0.63 0.47 -0.0222121
0.65 0.47 -0.0213502
0.67 0.47 -0.0204648
0.69 0.47 -0.0195797
0.71 0.47 -0.0187148
0.73 0.47 -0.0178862
0.75 0.47 -0.0171057
0.77 0.47 -0.0163817
0.79 0.47 -0.0157193
0.81 0.47 -0.0151213
0.83 0.47 -0.0145884
0.85 0.47 -0.0141203
0.87 0.47 -0.0137158
0.89 0.47 -0.0133732
0.91 0.47 -0.0130908
0.93 0.47 -0.012867
0.95 0.47 -0.0127005
0.97 0.47 -0.0125901
0.99 0.47 -0.0125351
0.01 0.49 -0.0125906
0.03 0.49 -0.0126461
0.05 0.49 -0.0127574
0.07 0.49 -0.0129254
0.09 0.49 -0.0131511
0.11 0.49 -0.013436
0.13 0.49 -0.0137817
0.15 0.49 -0.0141901
0.17 0.49 -0.0146628
0.19 0.49 -0.0152012
0.21 0.49 -0.0158056
0.23 0.49 -0.0164754
0.25 0.49 -0.0172079
0.27 0.49 -0.0179979
0.29 0.49 -0.018837
0.31 0.49 -0.0197132
0.33 0.49 -0.0206103
0.35 0.49 -0.021508
0.37 0.49 -0.0223823
0.39 0.49 -0.0232062
0.41 0.49 -0.0239512
0.43 0.49 -0.024589
0.45 0.49 -0.0250937
0.47 0.49 -0.0254434
0.49 0.49 -0.0256224
0.51 0.49 -0.0256224
0.53 0.49 -0.0254434
0.55 0.49 -0.0250937
0.57 0.49 -0.024589
0.59 0.49 -0.0239512
0.61 0.49 -0.0232062
0.63 0.49 -0.0223823
0.65 0.49 -0.021508
0.67 0.49 -0.0206103
0.69 0.49 -0.0197132
0.71 0.49 -0.018837
0.73 0.49 -0.0179979
0.75 0.49 -0.0172079
0.77 0.49 -0.0164754
0.79 0.49 -0.0158056
0.81 0.49 -0.0152012
0.83 0.49 -0.0146628
0.85 0.49 -0.0141901
0.87 0.49 -0.0137817
0.89 0.49 -0.013436
0.91 0.49 -0.0131511
0.93 0.49 -0.0129254
0.95 0.49 -0.0127574
0.97 0.49 -0.0126461
0.99 0.49 -0.0125906
0.01 0.51 -0.0125906
0.03 0.51 -0.0126461
0.05 0.51 -0.0127574
0.07 0.51 -0.0129254
0.09 0.51 -0.0131511
0.11 0.51 -0.013436
0.13 0.51 -0.0137817
0.15 0.51 -0.0141901
0.17 0.51 -0.0146628
0.19 0.51 -0.0152012
0.21 0.51 -0.0158056
0.23 0.51 -0.0164754
0.25 0.51 -0.0172079
0.27 0.51 -0.0179979
0.29 0.51 -0.018837
0.31 0.51 -0.0197132
0.33 0.51 -0.0206103
0.35 0.51 -0.021508
0.37 0.51 -0.0223823
0.39 0.51 -0.0232062
0.41 0.51 -0.0239512
0.43 0.51 -0.024589
0.45 0.51 -0.0250937
0.47 0.51 -0.0254434
0.49 0.51 -0.0256224
0.51 0.51 -0.0256224
0.53 0.51 -0.0254434
0.55 0.51 -0.0250937
0.57 0.51 -0.024589
0.59 0.51 -0.0239512
0.61 0.51 -0.0232062
0.63 0.51 -0.0223823
0.65 0.51 -0.021508
0.67 0.51 -0.0206103
0.69 0.51 -0.0197132
0.71 0.51 -0.018837
0.73 0.51 -0.0179979
0.75 0.51 -0.0172079
0.77 0.51 -0.0164754
0.79 0.51 -0.0158056
0.81 0.51 -0.0152012
0.83 0.51 -0.0146628
0.85 0.51 -0.0141901
0.87 0.51 -0.0137817
0.89 0.51 -0.013436
0.91 0.51 -0.0131511
0.93 0.51 -0.0129254
0.95 0.51 -0.0127574
0.97 0.51 -0.0126461
0.99 0.51 -0.0125906
0.01 0.53 -0.0125351
0.03 0.53 -0.0125901
0.05 0.53 -0.0127005
0.07 0.53 -0.012867
0.09 0.53 -0.0130908
0.11 0.53 -0.0133732
0.13 0.53 -0.0137158
0.15 0.53 -0.0141203
0.17 0.53 -0.0145884
0.19 0.53 -0.0151213
0.21 0.53 -0.0157193
0.23 0.53 -0.0163817
0.25 0.53 -0.0171057
0.27 0.53 -0.0178862
0.29 0.53 -0.0187148
0.31 0.53 -0.0195797
0.33 0.53 -0.0204648
0.35 0.53 -0.0213502
0.37 0.53 -0.0222121
0.39 0.53 -0.023024
0.41 0.53 -0.0237581
0.43 0.53 -0.0243865
0.45 0.53 -0.0248835
0.47 0.53 -0.0252279
0.49 0.53 -0.0254041
0.51 0.53 -0.0254041
0.53 0.53 -0.0252279
0.55 0.53 -0.0248835
0.57 0.53 -0.0243865
0.59 0.53 -0.0237581
0.61 0.53 -0.023024
0.63 0.53 -0.0222121
0.65 0.53 -0.0213502
0.67 0.53 -0.0204648
0.69 0.53 -0.0195797
0.71 0.53 -0.0187148
0.73 0.53 -0.0178862
0.75 0.53 -0.0171057
0.77 0.53 -0.0163817
0.79 0.53 -0.0157193
0.81 0.53 -0.0151213
0.83 0.53 -0.0145884
0.85 0.53 -0.0141203
0.87 0.53 -0.0137158
0.89 0.53 -0.0133732
0.91 0.53 -0.0130908
0.93 0.53 -0.012867
0.95 0.53 -0.0127005
0.97 0.53 -0.0125901
0.99 0.53 -0.0125351
0.01 0.55 -0.0124244
0.03 0.55 -0.0124785
0.05 0.55 -0.0125871
0.07 0.55 -0.0127509
0.09 0.55 -0.0129708
0.11 0.55 -0.0132483
0.13 0.55 -0.0135847
0.15 0.55 -0.0139817
0.17 0.55 -0.0144407
0.19 0.55 -0.0149628
0.21 0.55 -0.0155482
0.23 0.55 -0.0161961
0.25 0.55 -0.0169035
0.27 0.55 -0.0176654
0.29 0.55 -0.0184736
0.31 0.55 -0.0193164
0.33 0.55 -0.0201781
0.35 0.55 -0.0210394
0.37 0.55 -0.0218772
0.39 0.55 -0.0226661
0.41 0.55 -0.0233788
0.43 0.55 -0.0239887
0.45 0.55 -0.0244709
0.47 0.55 -0.024805
0.49 0.55 -0.0249759
0.51 0.55 -0.0249759
0.53 0.55 -0.024805
0.55 0.55 -0.0244709
0.57 0.55 -0.0239887
0.59 0.55 -0.0233788
0.61 0.55 -0.0226661
0.63 0.55 -0.0218772
0.65 0.55 -0.0210394
0.67 0.55 -0.0201781
0.69 0.55 -0.0193164
0.71 0.55 -0.0184736
0.73 0.55 -0.0176654
0.75 0.55 -0.0169035
0.77 0.55 -0.0161961
0.79 0.55 -0.0155482
0.81 0.55 -0.0149628
0.83 0.55 -0.0144407
0.85 0.55 -0.0139817
0.87 0.55 -0.0135847
0.89 0.55 -0.0132483
0.91 0.55 -0.0129708
0.93 0.55 -0.0127509
0.95 0.55 -0.0125871
0.97 0.55 -0.0124785
0.99 0.55 -0.0124244
0.01 0.57 -0.0122595
0.03 0.57 -0.0123123
0.05 0.57 -0.0124183