ZONE I= 1331 F=point
Variables = Iteration, Relative_Residue
1 0
2 -0.00364452
3 -0.0153392
4 -0.0200666
5 -0.0270872
6 -0.0321602
7 -0.038026
8 -0.043203
9 -0.0486534
10 -0.0538248
11 -0.0590807
12 -0.0642082
13 -0.0693509
14 -0.0744252
15 -0.0794899
16 -0.0845119
17 -0.0895162
18 -0.0944899
19 -0.099444
20 -0.104374
21 -0.109284
22 -0.114173
23 -0.119045
24 -0.123897
25 -0.128733
26 -0.133552
27 -0.138355
28 -0.143142
29 -0.147914
30 -0.152672
31 -0.157415
32 -0.162145
33 -0.166861
34 -0.171565
35 -0.176255
36 -0.180934
37 -0.1856
38 -0.190254
39 -0.194897
40 -0.199528
41 -0.204148
42 -0.208757
43 -0.213355
44 -0.217942
45 -0.22252
46 -0.227087
47 -0.231643
48 -0.23619
49 -0.240727
50 -0.245255
51 -0.249773
52 -0.254281
53 -0.25878
54 -0.26327
55 -0.267751
56 -0.272223
57 -0.276686
58 -0.281141
59 -0.285586
60 -0.290024
61 -0.294452
62 -0.298872
63 -0.303284
64 -0.307688
65 -0.312084
66 -0.316471
67 -0.32085
68 -0.325222
69 -0.329585
70 -0.333941
71 -0.338289
72 -0.342629
73 -0.346962
74 -0.351286
75 -0.355604
76 -0.359914
77 -0.364216
78 -0.368511
79 -0.372798
80 -0.377079
81 -0.381351
82 -0.385617
83 -0.389875
84 -0.394127
85 -0.398371
86 -0.402608
87 -0.406838
88 -0.41106
89 -0.415276
90 -0.419485
91 -0.423687
92 -0.427882
93 -0.43207
94 -0.436251
95 -0.440425
96 -0.444593
97 -0.448753
98 -0.452907
99 -0.457054
100 -0.461194
101 -0.465328
102 -0.469455
103 -0.473575
104 -0.477689
105 -0.481795
106 -0.485896
107 -0.489989
108 -0.494076
109 -0.498157
110 -0.50223
111 -0.506298
112 -0.510358
113 -0.514413
114 -0.51846
115 -0.522501
116 -0.526536
117 -0.530564
118 -0.534586
119 -0.538601
120 -0.54261
121 -0.546612
122 -0.550608
123 -0.554598
124 -0.558581
125 -0.562558
126 -0.566528
127 -0.570492
128 -0.57445
129 -0.578401
130 -0.582346
131 -0.586284
132 -0.590216
133 -0.594142
134 -0.598062
135 -0.601975
136 -0.605882
137 -0.609783
138 -0.613677
139 -0.617565
140 -0.621447
141 -0.625323
142 -0.629192
143 -0.633055
144 -0.636912
145 -0.640763
146 -0.644607
147 -0.648445
148 -0.652277
149 -0.656103
150 -0.659923
151 -0.663736
152 -0.667544
153 -0.671345
154 -0.67514
155 -0.678929
156 -0.682712
157 -0.686488
158 -0.690259
159 -0.694023
160 -0.697781
161 -0.701534
162 -0.70528
163 -0.70902
164 -0.712754
165 -0.716482
166 -0.720204
167 -0.723919
168 -0.727629
169 -0.731333
170 -0.735031
171 -0.738723
172 -0.742409
173 -0.746088
174 -0.749762
175 -0.75343
176 -0.757092
177 -0.760749
178 -0.764399
179 -0.768043
180 -0.771682
181 -0.775314
182 -0.778941
183 -0.782562
184 -0.786177
185 -0.789786
186 -0.793389
187 -0.796987
188 -0.800578
189 -0.804164
190 -0.807745
191 -0.811319
192 -0.814888
193 -0.818451
194 -0.822008
195 -0.82556
196 -0.829106
197 -0.832646
198 -0.836181
199 -0.83971
200 -0.843233
201 -0.846751
202 -0.850263
203 -0.85377
204 -0.857271
205 -0.860766
206 -0.864256
207 -0.867741
208 -0.87122
209 -0.874694
210 -0.878162
211 -0.881625
212 -0.885082
213 -0.888534
214 -0.89198
215 -0.895421
216 -0.898857
217 -0.902288
218 -0.905713
219 -0.909133
220 -0.912547
221 -0.915957
222 -0.919361
223 -0.92276
224 -0.926154
225 -0.929542
226 -0.932926
227 -0.936304
228 -0.939677
229 -0.943045
230 -0.946408
231 -0.949766
232 -0.953119
233 -0.956467
234 -0.95981
235 -0.963148
236 -0.966481
237 -0.96981
238 -0.973133
239 -0.976451
240 -0.979765
241 -0.983073
242 -0.986377
243 -0.989676
244 -0.992971
245 -0.99626
246 -0.999545
247 -1.00283
248 -1.0061
249 -1.00937
250 -1.01264
251 -1.0159
252 -1.01916
253 -1.02241
254 -1.02566
255 -1.0289
256 -1.03214
257 -1.03537
258 -1.0386
259 -1.04183
260 -1.04505
261 -1.04827
262 -1.05148
263 -1.05469
264 -1.05789
265 -1.06109
266 -1.06429
267 -1.06748
268 -1.07066
269 -1.07385
270 -1.07702
271 -1.0802
272 -1.08337
273 -1.08654
274 -1.0897
275 -1.09286
276 -1.09601
277 -1.09916
278 -1.10231
279 -1.10545
280 -1.10859
281 -1.11172
282 -1.11485
283 -1.11798
284 -1.1211
285 -1.12422
286 -1.12733
287 -1.13045
288 -1.13355
289 -1.13666
290 -1.13976
291 -1.14285
292 -1.14595
293 -1.14904
294 -1.15212
295 -1.15521
296 -1.15828
297 -1.16136
298 -1.16443
299 -1.1675
300 -1.17057
301 -1.17363
302 -1.17668
303 -1.17974
304 -1.18279
305 -1.18584
306 -1.18888
307 -1.19193
308 -1.19496
309 -1.198
310 -1.20103
311 -1.20406
312 -1.20709
313 -1.21011
314 -1.21313
315 -1.21614
316 -1.21916
317 -1.22217
318 -1.22517
319 -1.22818
320 -1.23118
321 -1.23418
322 -1.23717
323 -1.24017
324 -1.24316
325 -1.24614
326 -1.24913
327 -1.25211
328 -1.25509
329 -1.25806
330 -1.26103
331 -1.264
332 -1.26697
333 -1.26994
334 -1.2729
335 -1.27586
336 -1.27882
337 -1.28177
338 -1.28472
339 -1.28767
340 -1.29062
341 -1.29356
342 -1.2965
343 -1.29944
344 -1.30238
345 -1.30531
346 -1.30825
347 -1.31117
348 -1.3141
349 -1.31703
350 -1.31995
351 -1.32287
352 -1.32579
353 -1.3287
354 -1.33162
355 -1.33453
356 -1.33744
357 -1.34034
358 -1.34325
359 -1.34615
360 -1.34905
361 -1.35195
362 -1.35485
363 -1.35774
364 -1.36063
365 -1.36352
366 -1.36641
367 -1.3693
368 -1.37218
369 -1.37506
370 -1.37794
371 -1.38082
372 -1.3837
373 -1.38657
374 -1.38944
375 -1.39232
376 -1.39518
377 -1.39805
378 -1.40092
379 -1.40378
380 -1.40664
381 -1.4095
382 -1.41236
383 -1.41522
384 -1.41807
385 -1.42092
386 -1.42378
387 -1.42663
388 -1.42947
389 -1.43232
390 -1.43517
391 -1.43801
392 -1.44085
393 -1.44369
394 -1.44653
395 -1.44937
396 -1.4522
397 -1.45504
398 -1.45787
399 -1.4607
400 -1.46353
401 -1.46636
402 -1.46919
403 -1.47201
404 -1.47483
405 -1.47766
406 -1.48048
407 -1.4833
408 -1.48612
409 -1.48893
410 -1.49175
411 -1.49457
412 -1.49738
413 -1.50019
414 -1.503
415 -1.50581
416 -1.50862
417 -1.51143
418 -1.51423
419 -1.51704
420 -1.51984
421 -1.52264
422 -1.52544
423 -1.52824
424 -1.53104
425 -1.53384
426 -1.53664
427 -1.53943
428 -1.54223
429 -1.54502
430 -1.54781
431 -1.5506
432 -1.5534
433 -1.55618
434 -1.55897
435 -1.56176
436 -1.56455
437 -1.56733
438 -1.57012
439 -1.5729
440 -1.57568
441 -1.57846
442 -1.58124
443 -1.58402
444 -1.5868
445 -1.58958
446 -1.59235
447 -1.59513
448 -1.59791
449 -1.60068
450 -1.60345
451 -1.60623
452 -1.609
453 -1.61177
454 -1.61454
455 -1.61731
456 -1.62008
457 -1.62284
458 -1.62561
459 -1.62838
460 -1.63114
461 -1.63391
462 -1.63667
463 -1.63943
464 -1.64219
465 -1.64496
466 -1.64772
467 -1.65048
468 -1.65324
469 -1.65599
470 -1.65875
471 -1.66151
472 -1.66427
473 -1.66702
474 -1.66978
475 -1.67253
476 -1.67529
477 -1.67804
478 -1.68079
479 -1.68355
480 -1.6863
481 -1.68905
482 -1.6918
483 -1.69455
484 -1.6973
485 -1.70005
486 -1.70279
487 -1.70554
488 -1.70829
489 -1.71104
490 -1.71378
491 -1.71653
492 -1.71927
493 -1.72202
494 -1.72476
495 -1.7275
496 -1.73025
497 -1.73299
498 -1.73573
499 -1.73847
500 -1.74121
501 -1.74395
502 -1.74669
503 -1.74943
504 -1.75217
505 -1.75491
506 -1.75765
507 -1.76039
508 -1.76313
509 -1.76586
510 -1.7686
511 -1.77134
512 -1.77407
513 -1.77681
514 -1.77954
515 -1.78228
516 -1.78501
517 -1.78774
518 -1.79048
519 -1.79321
520 -1.79594
521 -1.79868
522 -1.80141
523 -1.80414
524 -1.80687
525 -1.8096
526 -1.81233
527 -1.81506
528 -1.81779
529 -1.82052
530 -1.82325
531 -1.82598
532 -1.82871
533 -1.83144
534 -1.83416
535 -1.83689
536 -1.83962
537 -1.84235
538 -1.84507
539 -1.8478
540 -1.85053
541 -1.85325
542 -1.85598
543 -1.8587
544 -1.86143
545 -1.86416
546 -1.86688
547 -1.8696
548 -1.87233
549 -1.87505
550 -1.87778
551 -1.8805
552 -1.88322
553 -1.88595
554 -1.88867
555 -1.89139
556 -1.89411
557 -1.89684
558 -1.89956
559 -1.90228
560 -1.905
561 -1.90772
562 -1.91044
563 -1.91317
564 -1.91589
565 -1.91861
566 -1.92133
567 -1.92405
568 -1.92677
569 -1.92949
570 -1.93221
571 -1.93493
572 -1.93765
573 -1.94036
574 -1.94308
575 -1.9458
576 -1.94852
577 -1.95124
578 -1.95396
579 -1.95668
580 -1.95939
581 -1.96211
582 -1.96483
583 -1.96755
584 -1.97027
585 -1.97298
586 -1.9757
587 -1.97842
588 -1.98113
589 -1.98385
590 -1.98657
591 -1.98928
592 -1.992
593 -1.99472
594 -1.99743
595 -2.00015
596 -2.00286
597 -2.00558
598 -2.0083
599 -2.01101
600 -2.01373
601 -2.01644
602 -2.01916
603 -2.02187
604 -2.02459
605 -2.0273
606 -2.03002
607 -2.03273
608 -2.03545
609 -2.03816
610 -2.04088
611 -2.04359
612 -2.04631
613 -2.04902
614 -2.05174
615 -2.05445
616 -2.05716
617 -2.05988
618 -2.06259
619 -2.06531
620 -2.06802
621 -2.07073
622 -2.07345
623 -2.07616
624 -2.07887
625 -2.08159
626 -2.0843
627 -2.08701
628 -2.08973
629 -2.09244
630 -2.09515
631 -2.09787
632 -2.10058
633 -2.10329
634 -2.10601
635 -2.10872
636 -2.11143
637 -2.11415
638 -2.11686
639 -2.11957
640 -2.12228
641 -2.125
642 -2.12771
643 -2.13042
644 -2.13313
645 -2.13585
646 -2.13856
647 -2.14127
648 -2.14399
649 -2.1467
650 -2.14941
651 -2.15212
652 -2.15483
653 -2.15755
654 -2.16026
655 -2.16297
656 -2.16568
657 -2.1684
658 -2.17111
659 -2.17382
660 -2.17653
661 -2.17924
662 -2.18196
663 -2.18467
664 -2.18738
665 -2.19009
666 -2.19281
667 -2.19552
668 -2.19823
669 -2.20094
670 -2.20365
671 -2.20637
672 -2.20908
673 -2.21179
674 -2.2145
675 -2.21721
676 -2.21993
677 -2.22264
678 -2.22535
679 -2.22806
680 -2.23077
681 -2.23349
682 -2.2362
683 -2.23891
684 -2.24162
685 -2.24433
686 -2.24705
687 -2.24976
688 -2.25247
689 -2.25518
690 -2.25789
691 -2.2606
692 -2.26332
693 -2.26603
694 -2.26874
695 -2.27145
696 -2.27416
697 -2.27688
698 -2.27959
699 -2.2823
700 -2.28501
701 -2.28772
702 -2.29044
703 -2.29315
704 -2.29586
705 -2.29857
706 -2.30129
707 -2.304
708 -2.30671
709 -2.30942
710 -2.31213
711 -2.31485
712 -2.31756
713 -2.32027
714 -2.32298
715 -2.32569
716 -2.32841
717 -2.33112
718 -2.33383
719 -2.33654
720 -2.33926
721 -2.34197
722 -2.34468
723 -2.34739
724 -2.35011
725 -2.35282
726 -2.35553
727 -2.35824
728 -2.36096
729 -2.36367
730 -2.36638
731 -2.36909
732 -2.37181
733 -2.37452
734 -2.37723
735 -2.37994
736 -2.38266
737 -2.38537
738 -2.38808
739 -2.39079
740 -2.39351
741 -2.39622
742 -2.39893
743 -2.40165
744 -2.40436
745 -2.40707
746 -2.40978
747 -2.4125
748 -2.41521
749 -2.41792
750 -2.42064
751 -2.42335
752 -2.42606
753 -2.42878
754 -2.43149
755 -2.4342
756 -2.43691
757 -2.43963
758 -2.44234
759 -2.44505
760 -2.44777
761 -2.45048
762 -2.45319
763 -2.45591
764 -2.45862
765 -2.46133
766 -2.46405
767 -2.46676
768 -2.46948
769 -2.47219
770 -2.4749
771 -2.47762
772 -2.48033
773 -2.48304
774 -2.48576
775 -2.48847
776 -2.49118
777 -2.4939
778 -2.49661
779 -2.49933
780 -2.50204
781 -2.50475
782 -2.50747
783 -2.51018
784 -2.5129
785 -2.51561
786 -2.51832
787 -2.52104
788 -2.52375
789 -2.52647
790 -2.52918
791 -2.5319
792 -2.53461
793 -2.53732
794 -2.54004
795 -2.54275
796 -2.54547
797 -2.54818
798 -2.5509
799 -2.55361
800 -2.55633
801 -2.55904
802 -2.56176
803 -2.56447
804 -2.56718
805 -2.5699
806 -2.57261
807 -2.57533
808 -2.57804
809 -2.58076
810 -2.58347
811 -2.58619
812 -2.5889
813 -2.59162
814 -2.59433
815 -2.59705
816 -2.59976
817 -2.60248
818 -2.60519
819 -2.60791
820 -2.61062
821 -2.61334
822 -2.61606
823 -2.61877
824 -2.62149
825 -2.6242
826 -2.62692
827 -2.62963
828 -2.63235
829 -2.63506
830 -2.63778
831 -2.6405
832 -2.64321
833 -2.64593
834 -2.64864
835 -2.65136
836 -2.65407
837 -2.65679
838 -2.65951
839 -2.66222
840 -2.66494
841 -2.66765
842 -2.67037
843 -2.67309
844 -2.6758
845 -2.67852
846 -2.68123
847 -2.68395
848 -2.68667
849 -2.68938
850 -2.6921
851 -2.69482
852 -2.69753
853 -2.70025
854 -2.70297
855 -2.70568
856 -2.7084
857 -2.71112
858 -2.71383
859 -2.71655
860 -2.71927
861 -2.72198
862 -2.7247
863 -2.72742
864 -2.73013
865 -2.73285
866 -2.73557
867 -2.73828
868 -2.741
869 -2.74372
870 -2.74643
871 -2.74915
872 -2.75187
873 -2.75459
874 -2.7573
875 -2.76002
876 -2.76274
877 -2.76545
878 -2.76817
879 -2.77089
880 -2.77361
881 -2.77632
882 -2.77904
883 -2.78176
884 -2.78448
885 -2.78719
886 -2.78991
887 -2.79263
888 -2.79535
889 -2.79806
890 -2.80078
891 -2.8035
892 -2.80622
893 -2.80893
894 -2.81165
895 -2.81437
896 -2.81709
897 -2.81981
898 -2.82252
899 -2.82524
900 -2.82796
901 -2.83068
902 -2.8334
903 -2.83611
904 -2.83883
905 -2.84155
906 -2.84427
907 -2.84699
908 -2.84971
909 -2.85242
910 -2.85514
911 -2.85786
912 -2.86058
913 -2.8633
914 -2.86602
915 -2.86873
916 -2.87145
917 -2.87417
918 -2.87689
919 -2.87961
920 -2.88233
921 -2.88505
922 -2.88776
923 -2.89048
924 -2.8932
925 -2.89592
926 -2.89864
927 -2.90136
928 -2.90408
929 -2.9068
930 -2.90952
931 -2.91223
932 -2.91495
933 -2.91767
934 -2.92039
935 -2.92311
936 -2.92583
937 -2.92855
938 -2.93127
939 -2.93399
940 -2.93671
941 -2.93943
942 -2.94214
943 -2.94486
944 -2.94758
945 -2.9503
946 -2.95302
947 -2.95574
948 -2.95846
949 -2.96118
950 -2.9639
951 -2.96662
952 -2.96934
953 -2.97206
954 -2.97478
955 -2.9775
956 -2.98022
957 -2.98294
958 -2.98566
959 -2.98838
960 -2.9911
961 -2.99382
962 -2.99654
963 -2.99926
964 -3.00198
965 -3.0047
966 -3.00742
967 -3.01014
968 -3.01286
969 -3.01558
970 -3.0183
971 -3.02102
972 -3.02374
973 -3.02646
974 -3.02918
975 -3.0319
976 -3.03462
977 -3.03734
978 -3.04006
979 -3.04278
980 -3.0455
981 -3.04822
982 -3.05094
983 -3.05366
984 -3.05638
985 -3.0591
986 -3.06182
987 -3.06454
988 -3.06726
989 -3.06998
990 -3.0727
991 -3.07542
992 -3.07814
993 -3.08087
994 -3.08359
995 -3.08631
996 -3.08903
997 -3.09175
998 -3.09447
999 -3.09719
1000 -3.09991
1001 -3.10263
1002 -3.10535
1003 -3.10807
1004 -3.11079
1005 -3.11352
1006 -3.11624
1007 -3.11896
1008 -3.12168
1009 -3.1244
1010 -3.12712
1011 -3.12984
1012 -3.13256
1013 -3.13528
1014 -3.138
1015 -3.14073
1016 -3.14345
1017 -3.14617
1018 -3.14889
1019 -3.15161
1020 -3.15433
1021 -3.15705
1022 -3.15978
1023 -3.1625
1024 -3.16522
1025 -3.16794
1026 -3.17066
1027 -3.17338
1028 -3.1761
1029 -3.17883
1030 -3.18155
1031 -3.18427
1032 -3.18699
1033 -3.18971
1034 -3.19243
1035 -3.19515
1036 -3.19788
1037 -3.2006
1038 -3.20332
1039 -3.20604
1040 -3.20876
1041 -3.21148
1042 -3.21421
1043 -3.21693
1044 -3.21965
1045 -3.22237
1046 -3.22509
1047 -3.22782
1048 -3.23054
1049 -3.23326
1050 -3.23598
1051 -3.2387
1052 -3.24143
1053 -3.24415
1054 -3.24687
1055 -3.24959
1056 -3.25231
1057 -3.25504
1058 -3.25776
1059 -3.26048
1060 -3.2632
1061 -3.26592
1062 -3.26865
1063 -3.27137
1064 -3.27409
1065 -3.27681
1066 -3.27954
1067 -3.28226
1068 -3.28498
1069 -3.2877
1070 -3.29042
1071 -3.29315
1072 -3.29587
1073 -3.29859
1074 -3.30131
1075 -3.30404
1076 -3.30676
1077 -3.30948
1078 -3.3122
1079 -3.31493
1080 -3.31765
1081 -3.32037
1082 -3.32309
1083 -3.32582
1084 -3.32854
1085 -3.33126
1086 -3.33398
1087 -3.33671
1088 -3.33943
1089 -3.34215
1090 -3.34488
1091 -3.3476
1092 -3.35032
1093 -3.35304
1094 -3.35577
1095 -3.35849
1096 -3.36121
1097 -3.36393
1098 -3.36666
1099 -3.36938
1100 -3.3721
1101 -3.37483
1102 -3.37755
1103 -3.38027
1104 -3.38299
1105 -3.38572
1106 -3.38844
1107 -3.39116
1108 -3.39389
1109 -3.39661
1110 -3.39933
1111 -3.40206
1112 -3.40478
1113 -3.4075
1114 -3.41023
1115 -3.41295
1116 -3.41567
1117 -3.41839
1118 -3.42112
1119 -3.42384
1120 -3.42656
1121 -3.42929
1122 -3.43201
1123 -3.43473
1124 -3.43746
1125 -3.44018
1126 -3.4429
1127 -3.44563
1128 -3.44835
1129 -3.45107
1130 -3.4538
1131 -3.45652
1132 -3.45924
1133 -3.46197
1134 -3.46469
1135 -3.46741
1136 -3.47014
1137 -3.47286
1138 -3.47558
1139 -3.47831
1140 -3.48103
1141 -3.48375
1142 -3.48648
1143 -3.4892
1144 -3.49193
1145 -3.49465
1146 -3.49737
1147 -3.5001
1148 -3.50282
1149 -3.50554
1150 -3.50827
1151 -3.51099
1152 -3.51371
1153 -3.51644
1154 -3.51916
1155 -3.52188
1156 -3.52461
1157 -3.52733
1158 -3.53006
1159 -3.53278
1160 -3.5355
1161 -3.53823
1162 -3.54095
1163 -3.54367
1164 -3.5464
1165 -3.54912
1166 -3.55185
1167 -3.55457
1168 -3.55729
1169 -3.56002
1170 -3.56274
1171 -3.56547
1172 -3.56819
1173 -3.57091
1174 -3.57364
1175 -3.57636
1176 -3.57909
1177 -3.58181
1178 -3.58453
1179 -3.58726
1180 -3.58998
1181 -3.59271
1182 -3.59543
1183 -3.59815
1184 -3.60088
1185 -3.6036
1186 -3.60633
1187 -3.60905
1188 -3.61177
1189 -3.6145
1190 -3.61722
1191 -3.61995
1192 -3.62267
1193 -3.62539
1194 -3.62812
1195 -3.63084
1196 -3.63357
1197 -3.63629
1198 -3.63902
1199 -3.64174
1200 -3.64446
1201 -3.64719
1202 -3.64991
1203 -3.65264
1204 -3.65536
1205 -3.65809
1206 -3.66081
1207 -3.66353
1208 -3.66626
1209 -3.66898
1210 -3.67171
1211 -3.67443
1212 -3.67716
1213 -3.67988
1214 -3.6826
1215 -3.68533
1216 -3.68805
1217 -3.69078
1218 -3.6935
1219 -3.69623
1220 -3.69895
1221 -3.70168
1222 -3.7044
1223 -3.70712
1224 -3.70985
1225 -3.71257
1226 -3.7153
1227 -3.71802
1228 -3.72075
1229 -3.72347
1230 -3.7262
1231 -3.72892
1232 -3.73165
1233 -3.73437
1234 -3.73709
1235 -3.73982
1236 -3.74254
1237 -3.74527
1238 -3.74799
1239 -3.75072
1240 -3.75344
1241 -3.75617
1242 -3.75889
1243 -3.76162
1244 -3.76434
1245 -3.76707
1246 -3.76979
1247 -3.77252
1248 -3.77524
1249 -3.77796
1250 -3.78069
1251 -3.78341
1252 -3.78614
1253 -3.78886
1254 -3.79159
1255 -3.79431
1256 -3.79704
1257 -3.79976
1258 -3.80249
1259 -3.80521
1260 -3.80794
1261 -3.81066
1262 -3.81339
1263 -3.81611
1264 -3.81884
1265 -3.82156
1266 -3.82429
1267 -3.82701
1268 -3.82974
1269 -3.83246
1270 -3.83519
1271 -3.83791
1272 -3.84064
1273 -3.84336
1274 -3.84609
1275 -3.84881
1276 -3.85154
1277 -3.85426
1278 -3.85699
1279 -3.85971
1280 -3.86244
1281 -3.86516
1282 -3.86789
1283 -3.87061
1284 -3.87334
1285 -3.87606
1286 -3.87879
1287 -3.88151
1288 -3.88424
1289 -3.88696
1290 -3.88969
1291 -3.89241
1292 -3.89514
1293 -3.89786
1294 -3.90059
1295 -3.90331
1296 -3.90604
1297 -3.90876
1298 -3.91149
1299 -3.91421
1300 -3.91694
1301 -3.91966
1302 -3.92239
1303 -3.92511
1304 -3.92784
1305 -3.93056
1306 -3.93329
1307 -3.93601
1308 -3.93874
1309 -3.94146
1310 -3.94419
1311 -3.94691
1312 -3.94964
1313 -3.95236
1314 -3.95509
1315 -3.95781
1316 -3.96054
1317 -3.96327
1318 -3.96599
1319 -3.96872
1320 -3.97144
1321 -3.97417
1322 -3.97689
1323 -3.97962
1324 -3.98234
1325 -3.98507
1326 -3.98779
1327 -3.99052
1328 -3.99324
1329 -3.99597
1330 -3.99869
1331 -4.00142
