Variables = x, y, u
ZONE I= 100 J= 100 F=point
0.005 0.005 -0.000187242
0.015 0.005 -0.000187371
0.025 0.005 -0.000187628
0.035 0.005 -0.000188013
0.045 0.005 -0.000188526
0.055 0.005 -0.000189164
0.065 0.005 -0.000189927
0.075 0.005 -0.000190813
0.085 0.005 -0.00019182
0.095 0.005 -0.000192945
0.105 0.005 -0.000194187
0.115 0.005 -0.000195543
0.125 0.005 -0.000197008
0.135 0.005 -0.00019858
0.145 0.005 -0.000200254
0.155 0.005 -0.000202026
0.165 0.005 -0.000203892
0.175 0.005 -0.000205846
0.185 0.005 -0.000207882
0.195 0.005 -0.000209994
0.205 0.005 -0.000212177
0.215 0.005 -0.000214423
0.225 0.005 -0.000216724
0.235 0.005 -0.000219073
0.245 0.005 -0.000221461
0.255 0.005 -0.00022388
0.265 0.005 -0.000226321
0.275 0.005 -0.000228774
0.285 0.005 -0.000231229
0.295 0.005 -0.000233676
0.305 0.005 -0.000236104
0.315 0.005 -0.000238504
0.325 0.005 -0.000240863
0.335 0.005 -0.00024317
0.345 0.005 -0.000245416
0.355 0.005 -0.000247587
0.365 0.005 -0.000249674
0.375 0.005 -0.000251666
0.385 0.005 -0.000253552
0.395 0.005 -0.000255321
0.405 0.005 -0.000256964
0.415 0.005 -0.000258471
0.425 0.005 -0.000259835
0.435 0.005 -0.000261046
0.445 0.005 -0.000262099
0.455 0.005 -0.000262986
0.465 0.005 -0.000263702
0.475 0.005 -0.000264243
0.485 0.005 -0.000264605
0.495 0.005 -0.000264787
0.505 0.005 -0.000264787
0.515 0.005 -0.000264605
0.525 0.005 -0.000264243
0.535 0.005 -0.000263702
0.545 0.005 -0.000262986
0.555 0.005 -0.000262099
0.565 0.005 -0.000261046
0.575 0.005 -0.000259835
0.585 0.005 -0.000258471
0.595 0.005 -0.000256964
0.605 0.005 -0.000255321
0.615 0.005 -0.000253551
0.625 0.005 -0.000251666
0.635 0.005 -0.000249674
0.645 0.005 -0.000247587
0.655 0.005 -0.000245416
0.665 0.005 -0.00024317
0.675 0.005 -0.000240862
0.685 0.005 -0.000238503
0.695 0.005 -0.000236104
0.705 0.005 -0.000233676
0.715 0.005 -0.000231229
0.725 0.005 -0.000228773
0.735 0.005 -0.000226321
0.745 0.005 -0.00022388
0.755 0.005 -0.000221461
0.765 0.005 -0.000219072
0.775 0.005 -0.000216724
0.785 0.005 -0.000214422
0.795 0.005 -0.000212177
0.805 0.005 -0.000209994
0.815 0.005 -0.000207882
0.825 0.005 -0.000205846
0.835 0.005 -0.000203892
0.845 0.005 -0.000202026
0.855 0.005 -0.000200254
0.865 0.005 -0.00019858
0.875 0.005 -0.000197008
0.885 0.005 -0.000195542
0.895 0.005 -0.000194187
0.905 0.005 -0.000192945
0.915 0.005 -0.000191819
0.925 0.005 -0.000190812
0.935 0.005 -0.000189926
0.945 0.005 -0.000189164
0.955 0.005 -0.000188525
0.965 0.005 -0.000188013
0.975 0.005 -0.000187628
0.985 0.005 -0.000187371
0.995 0.005 -0.000187242
0.005 0.015 -0.000561598
0.015 0.015 -0.000561985
0.025 0.015 -0.000562757
0.035 0.015 -0.000563913
0.045 0.015 -0.000565451
0.055 0.015 -0.000567367
0.065 0.015 -0.000569657
0.075 0.015 -0.000572317
0.085 0.015 -0.00057534
0.095 0.015 -0.00057872
0.105 0.015 -0.000582449
0.115 0.015 -0.000586518
0.125 0.015 -0.000590917
0.135 0.015 -0.000595637
0.145 0.015 -0.000600664
0.155 0.015 -0.000605986
0.165 0.015 -0.000611588
0.175 0.015 -0.000617454
0.185 0.015 -0.000623569
0.195 0.015 -0.000629913
0.205 0.015 -0.000636467
0.215 0.015 -0.000643211
0.225 0.015 -0.000650122
0.235 0.015 -0.000657176
0.245 0.015 -0.00066435
0.255 0.015 -0.000671616
0.265 0.015 -0.000678947
0.275 0.015 -0.000686315
0.285 0.015 -0.00069369
0.295 0.015 -0.000701041
0.305 0.015 -0.000708337
0.315 0.015 -0.000715545
0.325 0.015 -0.000722633
0.335 0.015 -0.000729566
0.345 0.015 -0.000736312
0.355 0.015 -0.000742838
0.365 0.015 -0.000749109
0.375 0.015 -0.000755093
0.385 0.015 -0.000760759
0.395 0.015 -0.000766075
0.405 0.015 -0.000771013
0.415 0.015 -0.000775543
0.425 0.015 -0.000779641
0.435 0.015 -0.000783282
0.445 0.015 -0.000786445
0.455 0.015 -0.00078911
0.465 0.015 -0.000791262
0.475 0.015 -0.000792888
0.485 0.015 -0.000793977
0.495 0.015 -0.000794524
0.505 0.015 -0.000794523
0.515 0.015 -0.000793977
0.525 0.015 -0.000792888
0.535 0.015 -0.000791262
0.545 0.015 -0.00078911
0.555 0.015 -0.000786444
0.565 0.015 -0.000783282
0.575 0.015 -0.000779641
0.585 0.015 -0.000775543
0.595 0.015 -0.000771013
0.605 0.015 -0.000766075
0.615 0.015 -0.000760759
0.625 0.015 -0.000755093
0.635 0.015 -0.000749109
0.645 0.015 -0.000742837
0.655 0.015 -0.000736312
0.665 0.015 -0.000729566
0.675 0.015 -0.000722632
0.685 0.015 -0.000715545
0.695 0.015 -0.000708337
0.705 0.015 -0.000701041
0.715 0.015 -0.00069369
0.725 0.015 -0.000686315
0.735 0.015 -0.000678947
0.745 0.015 -0.000671616
0.755 0.015 -0.00066435
0.765 0.015 -0.000657176
0.775 0.015 -0.000650121
0.785 0.015 -0.00064321
0.795 0.015 -0.000636467
0.805 0.015 -0.000629912
0.815 0.015 -0.000623568
0.825 0.015 -0.000617454
0.835 0.015 -0.000611587
0.845 0.015 -0.000605985
0.855 0.015 -0.000600663
0.865 0.015 -0.000595636
0.875 0.015 -0.000590917
0.885 0.015 -0.000586517
0.895 0.015 -0.000582448
0.905 0.015 -0.000578719
0.915 0.015 -0.000575339
0.925 0.015 -0.000572316
0.935 0.015 -0.000569656
0.945 0.015 -0.000567366
0.955 0.015 -0.00056545
0.965 0.015 -0.000563912
0.975 0.015 -0.000562756
0.985 0.015 -0.000561984
0.995 0.015 -0.000561597
0.005 0.025 -0.000935568
0.015 0.025 -0.000936213
0.025 0.025 -0.000937502
0.035 0.025 -0.000939431
0.045 0.025 -0.000941997
0.055 0.025 -0.000945195
0.065 0.025 -0.000949018
0.075 0.025 -0.000953457
0.085 0.025 -0.000958503
0.095 0.025 -0.000964145
0.105 0.025 -0.000970369
0.115 0.025 -0.000977162
0.125 0.025 -0.000984507
0.135 0.025 -0.000992386
0.145 0.025 -0.00100078
0.155 0.025 -0.00100966
0.165 0.025 -0.00101902
0.175 0.025 -0.00102881
0.185 0.025 -0.00103902
0.195 0.025 -0.00104962
0.205 0.025 -0.00106057
0.215 0.025 -0.00107183
0.225 0.025 -0.00108337
0.235 0.025 -0.00109516
0.245 0.025 -0.00110714
0.255 0.025 -0.00111928
0.265 0.025 -0.00113153
0.275 0.025 -0.00114385
0.285 0.025 -0.00115617
0.295 0.025 -0.00116846
0.305 0.025 -0.00118065
0.315 0.025 -0.0011927
0.325 0.025 -0.00120455
0.335 0.025 -0.00121614
0.345 0.025 -0.00122742
0.355 0.025 -0.00123833
0.365 0.025 -0.00124882
0.375 0.025 -0.00125882
0.385 0.025 -0.0012683
0.395 0.025 -0.00127719
0.405 0.025 -0.00128545
0.415 0.025 -0.00129303
0.425 0.025 -0.00129988
0.435 0.025 -0.00130597
0.445 0.025 -0.00131126
0.455 0.025 -0.00131572
0.465 0.025 -0.00131932
0.475 0.025 -0.00132204
0.485 0.025 -0.00132387
0.495 0.025 -0.00132478
0.505 0.025 -0.00132478
0.515 0.025 -0.00132387
0.525 0.025 -0.00132204
0.535 0.025 -0.00131932
0.545 0.025 -0.00131572
0.555 0.025 -0.00131126
0.565 0.025 -0.00130597
0.575 0.025 -0.00129988
0.585 0.025 -0.00129303
0.595 0.025 -0.00128545
0.605 0.025 -0.00127719
0.615 0.025 -0.0012683
0.625 0.025 -0.00125882
0.635 0.025 -0.00124882
0.645 0.025 -0.00123833
0.655 0.025 -0.00122742
0.665 0.025 -0.00121614
0.675 0.025 -0.00120455
0.685 0.025 -0.0011927
0.695 0.025 -0.00118065
0.705 0.025 -0.00116846
0.715 0.025 -0.00115617
0.725 0.025 -0.00114385
0.735 0.025 -0.00113153
0.745 0.025 -0.00111928
0.755 0.025 -0.00110714
0.765 0.025 -0.00109516
0.775 0.025 -0.00108337
0.785 0.025 -0.00107183
0.795 0.025 -0.00106057
0.805 0.025 -0.00104962
0.815 0.025 -0.00103902
0.825 0.025 -0.00102881
0.835 0.025 -0.00101902
0.845 0.025 -0.00100966
0.855 0.025 -0.00100078
0.865 0.025 -0.000992385
0.875 0.025 -0.000984506
0.885 0.025 -0.000977161
0.895 0.025 -0.000970368
0.905 0.025 -0.000964144
0.915 0.025 -0.000958502
0.925 0.025 -0.000953456
0.935 0.025 -0.000949017
0.945 0.025 -0.000945194
0.955 0.025 -0.000941996
0.965 0.025 -0.00093943
0.975 0.025 -0.0009375
0.985 0.025 -0.000936211
0.995 0.025 -0.000935566
0.005 0.035 -0.00130889
0.015 0.035 -0.0013098
0.025 0.035 -0.00131161
0.035 0.035 -0.00131431
0.045 0.035 -0.00131791
0.055 0.035 -0.0013224
0.065 0.035 -0.00132776
0.075 0.035 -0.00133399
0.085 0.035 -0.00134107
0.095 0.035 -0.00134899
0.105 0.035 -0.00135772
0.115 0.035 -0.00136725
0.125 0.035 -0.00137756
0.135 0.035 -0.00138862
0.145 0.035 -0.0014004
0.155 0.035 -0.00141287
0.165 0.035 -0.00142601
0.175 0.035 -0.00143976
0.185 0.035 -0.0014541
0.195 0.035 -0.00146897
0.205 0.035 -0.00148435
0.215 0.035 -0.00150017
0.225 0.035 -0.00151638
0.235 0.035 -0.00153294
0.245 0.035 -0.00154978
0.255 0.035 -0.00156684
0.265 0.035 -0.00158405
0.275 0.035 -0.00160136
0.285 0.035 -0.00161868
0.295 0.035 -0.00163595
0.305 0.035 -0.0016531
0.315 0.035 -0.00167004
0.325 0.035 -0.00168671
0.335 0.035 -0.00170301
0.345 0.035 -0.00171888
0.355 0.035 -0.00173423
0.365 0.035 -0.00174898
0.375 0.035 -0.00176307
0.385 0.035 -0.0017764
0.395 0.035 -0.00178892
0.405 0.035 -0.00180054
0.415 0.035 -0.00181121
0.425 0.035 -0.00182086
0.435 0.035 -0.00182943
0.445 0.035 -0.00183688
0.455 0.035 -0.00184316
0.465 0.035 -0.00184823
0.475 0.035 -0.00185206
0.485 0.035 -0.00185463
0.495 0.035 -0.00185591
0.505 0.035 -0.00185591
0.515 0.035 -0.00185463
0.525 0.035 -0.00185206
0.535 0.035 -0.00184823
0.545 0.035 -0.00184316
0.555 0.035 -0.00183688
0.565 0.035 -0.00182943
0.575 0.035 -0.00182086
0.585 0.035 -0.00181121
0.595 0.035 -0.00180054
0.605 0.035 -0.00178891
0.615 0.035 -0.0017764
0.625 0.035 -0.00176306
0.635 0.035 -0.00174898
0.645 0.035 -0.00173423
0.655 0.035 -0.00171888
0.665 0.035 -0.00170301
0.675 0.035 -0.00168671
0.685 0.035 -0.00167004
0.695 0.035 -0.0016531
0.705 0.035 -0.00163595
0.715 0.035 -0.00161868
0.725 0.035 -0.00160136
0.735 0.035 -0.00158405
0.745 0.035 -0.00156684
0.755 0.035 -0.00154978
0.765 0.035 -0.00153294
0.775 0.035 -0.00151638
0.785 0.035 -0.00150017
0.795 0.035 -0.00148435
0.805 0.035 -0.00146897
0.815 0.035 -0.0014541
0.825 0.035 -0.00143976
0.835 0.035 -0.001426
0.845 0.035 -0.00141287
0.855 0.035 -0.0014004
0.865 0.035 -0.00138862
0.875 0.035 -0.00137756
0.885 0.035 -0.00136725
0.895 0.035 -0.00135772
0.905 0.035 -0.00134899
0.915 0.035 -0.00134107
0.925 0.035 -0.00133399
0.935 0.035 -0.00132776
0.945 0.035 -0.0013224
0.955 0.035 -0.00131791
0.965 0.035 -0.00131431
0.975 0.035 -0.0013116
0.985 0.035 -0.0013098
0.995 0.035 -0.00130889
0.005 0.045 -0.00168131
0.015 0.045 -0.00168248
0.025 0.045 -0.00168481
0.035 0.045 -0.0016883
0.045 0.045 -0.00169294
0.055 0.045 -0.00169873
0.065 0.045 -0.00170564
0.075 0.045 -0.00171367
0.085 0.045 -0.0017228
0.095 0.045 -0.00173301
0.105 0.045 -0.00174428
0.115 0.045 -0.00175657
0.125 0.045 -0.00176987
0.135 0.045 -0.00178413
0.145 0.045 -0.00179933
0.155 0.045 -0.00181542
0.165 0.045 -0.00183237
0.175 0.045 -0.00185012
0.185 0.045 -0.00186863
0.195 0.045 -0.00188783
0.205 0.045 -0.00190768
0.215 0.045 -0.00192811
0.225 0.045 -0.00194905
0.235 0.045 -0.00197043
0.245 0.045 -0.00199219
0.255 0.045 -0.00201423
0.265 0.045 -0.00203647
0.275 0.045 -0.00205884
0.285 0.045 -0.00208124
0.295 0.045 -0.00210357
0.305 0.045 -0.00212574
0.315 0.045 -0.00214765
0.325 0.045 -0.00216921
0.335 0.045 -0.0021903
0.345 0.045 -0.00221083
0.355 0.045 -0.0022307
0.365 0.045 -0.00224979
0.375 0.045 -0.00226802
0.385 0.045 -0.00228529
0.395 0.045 -0.0023015
0.405 0.045 -0.00231655
0.415 0.045 -0.00233037
0.425 0.045 -0.00234286
0.435 0.045 -0.00235397
0.445 0.045 -0.00236362
0.455 0.045 -0.00237176
0.465 0.045 -0.00237833
0.475 0.045 -0.00238329
0.485 0.045 -0.00238662
0.495 0.045 -0.00238828
0.505 0.045 -0.00238828
0.515 0.045 -0.00238662
0.525 0.045 -0.00238329
0.535 0.045 -0.00237833
0.545 0.045 -0.00237176
0.555 0.045 -0.00236362
0.565 0.045 -0.00235397
0.575 0.045 -0.00234286
0.585 0.045 -0.00233037
0.595 0.045 -0.00231655
0.605 0.045 -0.00230149
0.615 0.045 -0.00228529
0.625 0.045 -0.00226802
0.635 0.045 -0.00224979
0.645 0.045 -0.0022307
0.655 0.045 -0.00221083
0.665 0.045 -0.0021903
0.675 0.045 -0.00216921
0.685 0.045 -0.00214765
0.695 0.045 -0.00212574
0.705 0.045 -0.00210357
0.715 0.045 -0.00208124
0.725 0.045 -0.00205884
0.735 0.045 -0.00203647
0.745 0.045 -0.00201423
0.755 0.045 -0.00199219
0.765 0.045 -0.00197043
0.775 0.045 -0.00194905
0.785 0.045 -0.00192811
0.795 0.045 -0.00190768
0.805 0.045 -0.00188783
0.815 0.045 -0.00186862
0.825 0.045 -0.00185012
0.835 0.045 -0.00183237
0.845 0.045 -0.00181542
0.855 0.045 -0.00179933
0.865 0.045 -0.00178413
0.875 0.045 -0.00176987
0.885 0.045 -0.00175657
0.895 0.045 -0.00174428
0.905 0.045 -0.00173301
0.915 0.045 -0.0017228
0.925 0.045 -0.00171367
0.935 0.045 -0.00170564
0.945 0.045 -0.00169872
0.955 0.045 -0.00169294
0.965 0.045 -0.0016883
0.975 0.045 -0.00168481
0.985 0.045 -0.00168248
0.995 0.045 -0.00168131
0.005 0.055 -0.00205257
0.015 0.055 -0.002054
0.025 0.055 -0.00205686
0.035 0.055 -0.00206114
0.045 0.055 -0.00206683
0.055 0.055 -0.00207392
0.065 0.055 -0.00208241
0.075 0.055 -0.00209226
0.085 0.055 -0.00210346
0.095 0.055 -0.00211598
0.105 0.055 -0.0021298
0.115 0.055 -0.00214489
0.125 0.055 -0.0021612
0.135 0.055 -0.00217871
0.145 0.055 -0.00219737
0.155 0.055 -0.00221712
0.165 0.055 -0.00223793
0.175 0.055 -0.00225972
0.185 0.055 -0.00228245
0.195 0.055 -0.00230604
0.205 0.055 -0.00233043
0.215 0.055 -0.00235553
0.225 0.055 -0.00238127
0.235 0.055 -0.00240756
0.245 0.055 -0.0024343
0.255 0.055 -0.0024614
0.265 0.055 -0.00248877
0.275 0.055 -0.00251628
0.285 0.055 -0.00254384
0.295 0.055 -0.00257132
0.305 0.055 -0.00259862
0.315 0.055 -0.0026256
0.325 0.055 -0.00265214
0.335 0.055 -0.00267813
0.345 0.055 -0.00270342
0.355 0.055 -0.0027279
0.365 0.055 -0.00275144
0.375 0.055 -0.00277391
0.385 0.055 -0.0027952
0.395 0.055 -0.00281518
0.405 0.055 -0.00283374
0.415 0.055 -0.00285079
0.425 0.055 -0.00286621
0.435 0.055 -0.00287991
0.445 0.055 -0.00289182
0.455 0.055 -0.00290186
0.465 0.055 -0.00290996
0.475 0.055 -0.00291609
0.485 0.055 -0.00292019
0.495 0.055 -0.00292225
0.505 0.055 -0.00292225
0.515 0.055 -0.00292019
0.525 0.055 -0.00291609
0.535 0.055 -0.00290996
0.545 0.055 -0.00290186
0.555 0.055 -0.00289182
0.565 0.055 -0.00287991
0.575 0.055 -0.0028662
0.585 0.055 -0.00285079
0.595 0.055 -0.00283374
0.605 0.055 -0.00281518
0.615 0.055 -0.00279519
0.625 0.055 -0.00277391
0.635 0.055 -0.00275144
0.645 0.055 -0.0027279
0.655 0.055 -0.00270342
0.665 0.055 -0.00267812
0.675 0.055 -0.00265214
0.685 0.055 -0.0026256
0.695 0.055 -0.00259862
0.705 0.055 -0.00257132
0.715 0.055 -0.00254384
0.725 0.055 -0.00251628
0.735 0.055 -0.00248877
0.745 0.055 -0.0024614
0.755 0.055 -0.0024343
0.765 0.055 -0.00240755
0.775 0.055 -0.00238127
0.785 0.055 -0.00235553
0.795 0.055 -0.00233043
0.805 0.055 -0.00230604
0.815 0.055 -0.00228245
0.825 0.055 -0.00225972
0.835 0.055 -0.00223793
0.845 0.055 -0.00221712
0.855 0.055 -0.00219736
0.865 0.055 -0.00217871
0.875 0.055 -0.0021612
0.885 0.055 -0.00214489
0.895 0.055 -0.0021298
0.905 0.055 -0.00211598
0.915 0.055 -0.00210345
0.925 0.055 -0.00209225
0.935 0.055 -0.0020824
0.945 0.055 -0.00207392
0.955 0.055 -0.00206683
0.965 0.055 -0.00206113
0.975 0.055 -0.00205685
0.985 0.055 -0.002054
0.995 0.055 -0.00205257
0.005 0.065 -0.00242239
0.015 0.065 -0.00242409
0.025 0.065 -0.00242748
0.035 0.065 -0.00243256
0.045 0.065 -0.00243932
0.055 0.065 -0.00244774
0.065 0.065 -0.0024578
0.075 0.065 -0.00246949
0.085 0.065 -0.00248279
0.095 0.065 -0.00249765
0.105 0.065 -0.00251406
0.115 0.065 -0.00253197
0.125 0.065 -0.00255135
0.135 0.065 -0.00257214
0.145 0.065 -0.0025943
0.155 0.065 -0.00261777
0.165 0.065 -0.00264249
0.175 0.065 -0.0026684
0.185 0.065 -0.00269541
0.195 0.065 -0.00272346
0.205 0.065 -0.00275246
0.215 0.065 -0.00278231
0.225 0.065 -0.00281293
0.235 0.065 -0.00284421
0.245 0.065 -0.00287604
0.255 0.065 -0.00290831
0.265 0.065 -0.00294089
0.275 0.065 -0.00297367
0.285 0.065 -0.0030065
0.295 0.065 -0.00303925
0.305 0.065 -0.00307178
0.315 0.065 -0.00310395
0.325 0.065 -0.00313561
0.335 0.065 -0.0031666
0.345 0.065 -0.00319678
0.355 0.065 -0.00322599
0.365 0.065 -0.00325409
0.375 0.065 -0.00328092
0.385 0.065 -0.00330634
0.395 0.065 -0.00333021
0.405 0.065 -0.00335239
0.415 0.065 -0.00337275
0.425 0.065 -0.00339118
0.435 0.065 -0.00340756
0.445 0.065 -0.00342179
0.455 0.065 -0.00343379
0.465 0.065 -0.00344349
0.475 0.065 -0.00345081
0.485 0.065 -0.00345572
0.495 0.065 -0.00345818
0.505 0.065 -0.00345818
0.515 0.065 -0.00345572
0.525 0.065 -0.00345081
0.535 0.065 -0.00344349
0.545 0.065 -0.00343379
0.555 0.065 -0.00342179
0.565 0.065 -0.00340756
0.575 0.065 -0.00339118
0.585 0.065 -0.00337275
0.595 0.065 -0.00335239
0.605 0.065 -0.00333021
0.615 0.065 -0.00330634
0.625 0.065 -0.00328092
0.635 0.065 -0.00325409
0.645 0.065 -0.00322599
0.655 0.065 -0.00319678
0.665 0.065 -0.0031666
0.675 0.065 -0.00313561
0.685 0.065 -0.00310395
0.695 0.065 -0.00307178
0.705 0.065 -0.00303925
0.715 0.065 -0.0030065
0.725 0.065 -0.00297367
0.735 0.065 -0.00294089
0.745 0.065 -0.00290831
0.755 0.065 -0.00287604
0.765 0.065 -0.00284421
0.775 0.065 -0.00281293
0.785 0.065 -0.00278231
0.795 0.065 -0.00275245
0.805 0.065 -0.00272346
0.815 0.065 -0.00269541
0.825 0.065 -0.00266839
0.835 0.065 -0.00264249
0.845 0.065 -0.00261777
0.855 0.065 -0.0025943
0.865 0.065 -0.00257214
0.875 0.065 -0.00255135
0.885 0.065 -0.00253197
0.895 0.065 -0.00251406
0.905 0.065 -0.00249765
0.915 0.065 -0.00248278
0.925 0.065 -0.00246949
0.935 0.065 -0.0024578
0.945 0.065 -0.00244773
0.955 0.065 -0.00243931
0.965 0.065 -0.00243256
0.975 0.065 -0.00242748
0.985 0.065 -0.00242409
0.995 0.065 -0.00242239
0.005 0.075 -0.00279052
0.015 0.075 -0.00279249
0.025 0.075 -0.00279642
0.035 0.075 -0.00280231
0.045 0.075 -0.00281014
0.055 0.075 -0.0028199
0.065 0.075 -0.00283157
0.075 0.075 -0.00284513
0.085 0.075 -0.00286054
0.095 0.075 -0.00287779
0.105 0.075 -0.00289682
0.115 0.075 -0.0029176
0.125 0.075 -0.00294008
0.135 0.075 -0.0029642
0.145 0.075 -0.00298992
0.155 0.075 -0.00301717
0.165 0.075 -0.00304587
0.175 0.075 -0.00307595
0.185 0.075 -0.00310733
0.195 0.075 -0.00313992
0.205 0.075 -0.00317362
0.215 0.075 -0.00320833
0.225 0.075 -0.00324393
0.235 0.075 -0.00328031
0.245 0.075 -0.00331734
0.255 0.075 -0.00335488
0.265 0.075 -0.00339281
0.275 0.075 -0.00343097
0.285 0.075 -0.00346921
0.295 0.075 -0.00350737
0.305 0.075 -0.00354528
0.315 0.075 -0.00358278
0.325 0.075 -0.00361969
0.335 0.075 -0.00365584
0.345 0.075 -0.00369105
0.355 0.075 -0.00372515
0.365 0.075 -0.00375794
0.375 0.075 -0.00378927
0.385 0.075 -0.00381896
0.395 0.075 -0.00384684
0.405 0.075 -0.00387276
0.415 0.075 -0.00389656
0.425 0.075 -0.00391809
0.435 0.075 -0.00393724
0.445 0.075 -0.00395389
0.455 0.075 -0.00396792
0.465 0.075 -0.00397925
0.475 0.075 -0.00398782
0.485 0.075 -0.00399356
0.495 0.075 -0.00399644
0.505 0.075 -0.00399644
0.515 0.075 -0.00399356
0.525 0.075 -0.00398782
0.535 0.075 -0.00397925
0.545 0.075 -0.00396792
0.555 0.075 -0.00395389
0.565 0.075 -0.00393724
0.575 0.075 -0.00391809
0.585 0.075 -0.00389655
0.595 0.075 -0.00387276
0.605 0.075 -0.00384684
0.615 0.075 -0.00381896
0.625 0.075 -0.00378927
0.635 0.075 -0.00375794
0.645 0.075 -0.00372514
0.655 0.075 -0.00369105
0.665 0.075 -0.00365584
0.675 0.075 -0.00361969
0.685 0.075 -0.00358278
0.695 0.075 -0.00354528
0.705 0.075 -0.00350737
0.715 0.075 -0.00346921
0.725 0.075 -0.00343097
0.735 0.075 -0.00339281
0.745 0.075 -0.00335488
0.755 0.075 -0.00331733
0.765 0.075 -0.0032803
0.775 0.075 -0.00324392
0.785 0.075 -0.00320832
0.795 0.075 -0.00317362
0.805 0.075 -0.00313992
0.815 0.075 -0.00310733
0.825 0.075 -0.00307595
0.835 0.075 -0.00304587
0.845 0.075 -0.00301717
0.855 0.075 -0.00298992
0.865 0.075 -0.0029642
0.875 0.075 -0.00294007
0.885 0.075 -0.00291759
0.895 0.075 -0.00289681
0.905 0.075 -0.00287778
0.915 0.075 -0.00286054
0.925 0.075 -0.00284512
0.935 0.075 -0.00283157
0.945 0.075 -0.0028199
0.955 0.075 -0.00281014
0.965 0.075 -0.0028023
0.975 0.075 -0.00279642
0.985 0.075 -0.00279249
0.995 0.075 -0.00279052
0.005 0.085 -0.00315668
0.015 0.085 -0.00315893
0.025 0.085 -0.0031634
0.035 0.085 -0.00317011
0.045 0.085 -0.00317903
0.055 0.085 -0.00319016
0.065 0.085 -0.00320345
0.075 0.085 -0.0032189
0.085 0.085 -0.00323647
0.095 0.085 -0.00325613
0.105 0.085 -0.00327782
0.115 0.085 -0.00330152
0.125 0.085 -0.00332715
0.135 0.085 -0.00335468
0.145 0.085 -0.00338402
0.155 0.085 -0.00341511
0.165 0.085 -0.00344787
0.175 0.085 -0.00348221
0.185 0.085 -0.00351804
0.195 0.085 -0.00355527
0.205 0.085 -0.00359377
0.215 0.085 -0.00363343
0.225 0.085 -0.00367413
0.235 0.085 -0.00371573
0.245 0.085 -0.00375809
0.255 0.085 -0.00380106
0.265 0.085 -0.00384447
0.275 0.085 -0.00388817
0.285 0.085 -0.00393197
0.295 0.085 -0.00397569
0.305 0.085 -0.00401914
0.315 0.085 -0.00406214
0.325 0.085 -0.00410448
0.335 0.085 -0.00414595
0.345 0.085 -0.00418636
0.355 0.085 -0.0042255
0.365 0.085 -0.00426317
0.375 0.085 -0.00429916
0.385 0.085 -0.00433327
0.395 0.085 -0.00436532
0.405 0.085 -0.00439511
0.415 0.085 -0.00442248
0.425 0.085 -0.00444725
0.435 0.085 -0.00446928
0.445 0.085 -0.00448843
0.455 0.085 -0.00450457
0.465 0.085 -0.00451762
0.475 0.085 -0.00452748
0.485 0.085 -0.00453408
0.495 0.085 -0.0045374
0.505 0.085 -0.0045374
0.515 0.085 -0.00453408
0.525 0.085 -0.00452748
0.535 0.085 -0.00451762
0.545 0.085 -0.00450457
0.555 0.085 -0.00448843
0.565 0.085 -0.00446928
0.575 0.085 -0.00444725
0.585 0.085 -0.00442248
0.595 0.085 -0.00439511
0.605 0.085 -0.00436532
0.615 0.085 -0.00433327
0.625 0.085 -0.00429916
0.635 0.085 -0.00426317
0.645 0.085 -0.0042255
0.655 0.085 -0.00418636
0.665 0.085 -0.00414595
0.675 0.085 -0.00410447
0.685 0.085 -0.00406214
0.695 0.085 -0.00401914
0.705 0.085 -0.00397569
0.715 0.085 -0.00393197
0.725 0.085 -0.00388817
0.735 0.085 -0.00384447
0.745 0.085 -0.00380106
0.755 0.085 -0.00375809
0.765 0.085 -0.00371573
0.775 0.085 -0.00367413
0.785 0.085 -0.00363343
0.795 0.085 -0.00359377
0.805 0.085 -0.00355526
0.815 0.085 -0.00351804
0.825 0.085 -0.00348221
0.835 0.085 -0.00344786
0.845 0.085 -0.0034151
0.855 0.085 -0.00338401
0.865 0.085 -0.00335467
0.875 0.085 -0.00332715
0.885 0.085 -0.00330151
0.895 0.085 -0.00327782
0.905 0.085 -0.00325612
0.915 0.085 -0.00323647
0.925 0.085 -0.0032189
0.935 0.085 -0.00320345
0.945 0.085 -0.00319015
0.955 0.085 -0.00317903
0.965 0.085 -0.00317011
0.975 0.085 -0.0031634
0.985 0.085 -0.00315892
0.995 0.085 -0.00315668
0.005 0.095 -0.00352061
0.015 0.095 -0.00352313
0.025 0.095 -0.00352816
0.035 0.095 -0.0035357
0.045 0.095 -0.00354573
0.055 0.095 -0.00355823
0.065 0.095 -0.00357319
0.075 0.095 -0.00359056
0.085 0.095 -0.00361032
0.095 0.095 -0.00363243
0.105 0.095 -0.00365684
0.115 0.095 -0.00368349
0.125 0.095 -0.00371235
0.135 0.095 -0.00374332
0.145 0.095 -0.00377636
0.155 0.095 -0.00381137
0.165 0.095 -0.00384827
0.175 0.095 -0.00388697
0.185 0.095 -0.00392736
0.195 0.095 -0.00396932
0.205 0.095 -0.00401274
0.215 0.095 -0.00405749
0.225 0.095 -0.00410342
0.235 0.095 -0.00415038
0.245 0.095 -0.00419822
0.255 0.095 -0.00424676
0.265 0.095 -0.00429582
0.275 0.095 -0.00434522
0.285 0.095 -0.00439475
0.295 0.095 -0.00444422
0.305 0.095 -0.0044934
0.315 0.095 -0.00454209
0.325 0.095 -0.00459004
0.335 0.095 -0.00463704
0.345 0.095 -0.00468284
0.355 0.095 -0.00472722
0.365 0.095 -0.00476995
0.375 0.095 -0.00481078
0.385 0.095 -0.0048495
0.395 0.095 -0.00488589
0.405 0.095 -0.00491972
0.415 0.095 -0.00495081
0.425 0.095 -0.00497895
0.435 0.095 -0.00500399
0.445 0.095 -0.00502575
0.455 0.095 -0.00504411
0.465 0.095 -0.00505894
0.475 0.095 -0.00507015
0.485 0.095 -0.00507766
0.495 0.095 -0.00508143
0.505 0.095 -0.00508143
0.515 0.095 -0.00507766
0.525 0.095 -0.00507015
0.535 0.095 -0.00505894
0.545 0.095 -0.00504411
0.555 0.095 -0.00502575
0.565 0.095 -0.00500398
0.575 0.095 -0.00497895
0.585 0.095 -0.0049508
0.595 0.095 -0.00491972
0.605 0.095 -0.00488588
0.615 0.095 -0.0048495
0.625 0.095 -0.00481078
0.635 0.095 -0.00476995
0.645 0.095 -0.00472722
0.655 0.095 -0.00468284
0.665 0.095 -0.00463703
0.675 0.095 -0.00459004
0.685 0.095 -0.00454208
0.695 0.095 -0.0044934
0.705 0.095 -0.00444422
0.715 0.095 -0.00439475
0.725 0.095 -0.00434522
0.735 0.095 -0.00429582
0.745 0.095 -0.00424676
0.755 0.095 -0.00419822
0.765 0.095 -0.00415038
0.775 0.095 -0.00410342
0.785 0.095 -0.00405749
0.795 0.095 -0.00401274
0.805 0.095 -0.00396932
0.815 0.095 -0.00392735
0.825 0.095 -0.00388697
0.835 0.095 -0.00384827
0.845 0.095 -0.00381137
0.855 0.095 -0.00377636
0.865 0.095 -0.00374332
0.875 0.095 -0.00371234
0.885 0.095 -0.00368349
0.895 0.095 -0.00365683
0.905 0.095 -0.00363242
0.915 0.095 -0.00361032
0.925 0.095 -0.00359056
0.935 0.095 -0.00357318
0.945 0.095 -0.00355823
0.955 0.095 -0.00354573
0.965 0.095 -0.00353569
0.975 0.095 -0.00352816
0.985 0.095 -0.00352312
0.995 0.095 -0.0035206
0.005 0.105 -0.00388201
0.015 0.105 -0.00388481
0.025 0.105 -0.00389041
0.035 0.105 -0.0038988
0.045 0.105 -0.00390995
0.055 0.105 -0.00392386
0.065 0.105 -0.0039405
0.075 0.105 -0.00395983
0.085 0.105 -0.00398182
0.095 0.105 -0.00400642
0.105 0.105 -0.0040336
0.115 0.105 -0.00406328
0.125 0.105 -0.00409541
0.135 0.105 -0.00412992
0.145 0.105 -0.00416672
0.155 0.105 -0.00420574
0.165 0.105 -0.00424688
0.175 0.105 -0.00429003
0.185 0.105 -0.00433508
0.195 0.105 -0.00438191
0.205 0.105 -0.00443038
0.215 0.105 -0.00448034
0.225 0.105 -0.00453165
0.235 0.105 -0.00458413
0.245 0.105 -0.00463761
0.255 0.105 -0.00469189
0.265 0.105 -0.00474679
0.275 0.105 -0.00480208
0.285 0.105 -0.00485755
0.295 0.105 -0.00491296
0.305 0.105 -0.00496808
0.315 0.105 -0.00502266
0.325 0.105 -0.00507645
0.335 0.105 -0.00512919
0.345 0.105 -0.00518061
0.355 0.105 -0.00523045
0.365 0.105 -0.00527845
0.375 0.105 -0.00532434
0.385 0.105 -0.00536787
0.395 0.105 -0.00540878
0.405 0.105 -0.00544684
0.415 0.105 -0.00548182
0.425 0.105 -0.0055135
0.435 0.105 -0.00554169
0.445 0.105 -0.00556619
0.455 0.105 -0.00558687
0.465 0.105 -0.00560357
0.475 0.105 -0.0056162
0.485 0.105 -0.00562467
0.495 0.105 -0.00562891
0.505 0.105 -0.00562891
0.515 0.105 -0.00562467
0.525 0.105 -0.0056162
0.535 0.105 -0.00560357
0.545 0.105 -0.00558687
0.555 0.105 -0.00556619
0.565 0.105 -0.00554169
0.575 0.105 -0.0055135
0.585 0.105 -0.00548182
0.595 0.105 -0.00544684
0.605 0.105 -0.00540878
0.615 0.105 -0.00536787
0.625 0.105 -0.00532434
0.635 0.105 -0.00527844
0.645 0.105 -0.00523045
0.655 0.105 -0.00518061
0.665 0.105 -0.00512918
0.675 0.105 -0.00507645
0.685 0.105 -0.00502266
0.695 0.105 -0.00496808
0.705 0.105 -0.00491296
0.715 0.105 -0.00485754
0.725 0.105 -0.00480208
0.735 0.105 -0.00474679
0.745 0.105 -0.00469189
0.755 0.105 -0.00463761
0.765 0.105 -0.00458413
0.775 0.105 -0.00453165
0.785 0.105 -0.00448034
0.795 0.105 -0.00443038
0.805 0.105 -0.00438191
0.815 0.105 -0.00433508
0.825 0.105 -0.00429003
0.835 0.105 -0.00424688
0.845 0.105 -0.00420574
0.855 0.105 -0.00416672
0.865 0.105 -0.00412991
0.875 0.105 -0.0040954
0.885 0.105 -0.00406327
0.895 0.105 -0.00403359
0.905 0.105 -0.00400642
0.915 0.105 -0.00398181
0.925 0.105 -0.00395983
0.935 0.105 -0.00394049
0.945 0.105 -0.00392386
0.955 0.105 -0.00390995
0.965 0.105 -0.00389879
0.975 0.105 -0.00389041
0.985 0.105 -0.00388481
0.995 0.105 -0.003882
0.005 0.115 -0.00424061
0.015 0.115 -0.0042437
0.025 0.115 -0.00424988
0.035 0.115 -0.00425912
0.045 0.115 -0.00427143
0.055 0.115 -0.00428677
0.065 0.115 -0.00430512
0.075 0.115 -0.00432644
0.085 0.115 -0.0043507
0.095 0.115 -0.00437785
0.105 0.115 -0.00440784
0.115 0.115 -0.00444061
0.125 0.115 -0.00447609
0.135 0.115 -0.00451421
0.145 0.115 -0.00455487
0.155 0.115 -0.00459799
0.165 0.115 -0.00464347
0.175 0.115 -0.00469119
0.185 0.115 -0.00474102
0.195 0.115 -0.00479284
0.205 0.115 -0.0048465
0.215 0.115 -0.00490183
0.225 0.115 -0.00495868
0.235 0.115 -0.00501685
0.245 0.115 -0.00507615
0.255 0.115 -0.00513637
0.265 0.115 -0.0051973
0.275 0.115 -0.00525869
0.285 0.115 -0.00532031
0.295 0.115 -0.0053819
0.305 0.115 -0.00544319
0.315 0.115 -0.00550391
0.325 0.115 -0.00556377
0.335 0.115 -0.00562249
0.345 0.115 -0.00567977
0.355 0.115 -0.00573531
0.365 0.115 -0.00578882
0.375 0.115 -0.00584001
0.385 0.115 -0.00588858
0.395 0.115 -0.00593425
0.405 0.115 -0.00597674
0.415 0.115 -0.00601581
0.425 0.115 -0.0060512
0.435 0.115 -0.0060827
0.445 0.115 -0.00611009
0.455 0.115 -0.0061332
0.465 0.115 -0.00615188
0.475 0.115 -0.006166
0.485 0.115 -0.00617547
0.495 0.115 -0.00618022
0.505 0.115 -0.00618022
0.515 0.115 -0.00617547
0.525 0.115 -0.006166
0.535 0.115 -0.00615188
0.545 0.115 -0.0061332
0.555 0.115 -0.00611009
0.565 0.115 -0.0060827
0.575 0.115 -0.0060512
0.585 0.115 -0.00601581
0.595 0.115 -0.00597674
0.605 0.115 -0.00593425
0.615 0.115 -0.00588858
0.625 0.115 -0.00584001
0.635 0.115 -0.00578882
0.645 0.115 -0.00573531
0.655 0.115 -0.00567977
0.665 0.115 -0.00562249
0.675 0.115 -0.00556377
0.685 0.115 -0.00550391
0.695 0.115 -0.00544319
0.705 0.115 -0.0053819
0.715 0.115 -0.00532031
0.725 0.115 -0.00525869
0.735 0.115 -0.00519729
0.745 0.115 -0.00513637
0.755 0.115 -0.00507615
0.765 0.115 -0.00501685
0.775 0.115 -0.00495868
0.785 0.115 -0.00490183
0.795 0.115 -0.0048465
0.805 0.115 -0.00479284
0.815 0.115 -0.00474102
0.825 0.115 -0.00469118
0.835 0.115 -0.00464347
0.845 0.115 -0.00459799
0.855 0.115 -0.00455487
0.865 0.115 -0.0045142
0.875 0.115 -0.00447609
0.885 0.115 -0.00444061
0.895 0.115 -0.00440784
0.905 0.115 -0.00437785
0.915 0.115 -0.0043507
0.925 0.115 -0.00432644
0.935 0.115 -0.00430511
0.945 0.115 -0.00428676
0.955 0.115 -0.00427142
0.965 0.115 -0.00425912
0.975 0.115 -0.00424987
0.985 0.115 -0.0042437
0.995 0.115 -0.00424061
0.005 0.125 -0.00459613
0.015 0.125 -0.00459951
0.025 0.125 -0.00460627
0.035 0.125 -0.00461639
0.045 0.125 -0.00462987
0.055 0.125 -0.00464666
0.065 0.125 -0.00466676
0.075 0.125 -0.00469012
0.085 0.125 -0.00471669
0.095 0.125 -0.00474645
0.105 0.125 -0.00477931
0.115 0.125 -0.00481523
0.125 0.125 -0.00485414
0.135 0.125 -0.00489594
0.145 0.125 -0.00494055
0.155 0.125 -0.00498788
0.165 0.125 -0.0050378
0.175 0.125 -0.00509021
0.185 0.125 -0.00514496
0.195 0.125 -0.00520192
0.205 0.125 -0.00526091
0.215 0.125 -0.00532178
0.225 0.125 -0.00538434
0.235 0.125 -0.00544839
0.245 0.125 -0.00551371
0.255 0.125 -0.00558008
0.265 0.125 -0.00564726
0.275 0.125 -0.00571499
0.285 0.125 -0.005783
0.295 0.125 -0.00585101
0.305 0.125 -0.00591872
0.315 0.125 -0.00598584
0.325 0.125 -0.00605205
0.335 0.125 -0.00611702
0.345 0.125 -0.00618043
0.355 0.125 -0.00624194
0.365 0.125 -0.00630124
0.375 0.125 -0.00635798
0.385 0.125 -0.00641184
0.395 0.125 -0.0064625
0.405 0.125 -0.00650967
0.415 0.125 -0.00655304
0.425 0.125 -0.00659234
0.435 0.125 -0.00662733