Variables = x, y, u
ZONE I= 80 J= 80 F=point
0.139243 0.0117781 -7.24263e-06
0.149176 0.0295483 -9.92285e-06
0.159108 0.0473185 -1.17434e-05
0.169041 0.0650887 -1.35896e-05
0.179162 0.0823779 -1.47466e-05
0.189471 0.0991862 -1.57139e-05
0.199781 0.115995 -1.67704e-05
0.21009 0.132803 -1.81994e-05
0.220483 0.149234 -1.93096e-05
0.230961 0.165288 -2.05148e-05
0.241438 0.181341 -2.2053e-05
0.251916 0.197395 -2.44008e-05
0.262465 0.212992 -2.64617e-05
0.273087 0.228132 -2.8827e-05
0.283708 0.243272 -3.19195e-05
0.29433 0.258412 -3.65342e-05
0.305014 0.273044 -4.08101e-05
0.315761 0.287168 -4.5575e-05
0.326508 0.301292 -5.16008e-05
0.337255 0.315416 -6.01361e-05
0.348055 0.329009 -6.78762e-05
0.358908 0.34207 -7.5929e-05
0.369761 0.355131 -8.56395e-05
0.380615 0.368192 -9.86904e-05
0.391512 0.380717 -0.000109519
0.402454 0.392706 -0.000119614
0.413395 0.404695 -0.0001312
0.424337 0.416684 -0.000146169
0.435313 0.428148 -0.000156512
0.446323 0.439085 -0.000164354
0.457334 0.450022 -0.000173082
0.468344 0.46096 -0.000184489
0.479379 0.471391 -0.000189146
0.49044 0.481316 -0.000189996
0.5015 0.491242 -0.000191454
0.51256 0.501167 -0.000194937
0.523637 0.510614 -0.000191327
0.53473 0.519582 -0.000184077
0.545824 0.528551 -0.000177884
0.556917 0.537519 -0.000173591
0.568017 0.546041 -0.00016377
0.579125 0.554116 -0.000151657
0.590232 0.562191 -0.000141298
0.60134 0.570266 -0.000132952
0.612446 0.577929 -0.000121345
0.623551 0.585181 -0.000108902
0.634656 0.592433 -9.85132e-05
0.645761 0.599684 -9.00446e-05
0.656857 0.60656 -8.01228e-05
0.667942 0.613061 -7.0243e-05
0.679027 0.619561 -6.21834e-05
0.690113 0.626061 -5.56614e-05
0.701181 0.632222 -4.8682e-05
0.712233 0.638042 -4.20321e-05
0.723285 0.643862 -3.67021e-05
0.734337 0.649683 -3.24243e-05
0.745364 0.655198 -2.80913e-05
0.756367 0.660407 -2.40687e-05
0.76737 0.665616 -2.08783e-05
0.778373 0.670826 -1.83295e-05
0.789346 0.675762 -1.58326e-05
0.800288 0.680425 -1.35452e-05
0.81123 0.685088 -1.17394e-05
0.822172 0.689751 -1.02985e-05
0.833079 0.694171 -8.91653e-06
0.843949 0.698347 -7.65814e-06
0.85482 0.702524 -6.66743e-06
0.865691 0.706701 -5.87902e-06
0.876521 0.710661 -5.13501e-06
0.887312 0.714405 -4.46044e-06
0.898102 0.718149 -3.93502e-06
0.908893 0.721893 -3.52424e-06
0.919638 0.725445 -3.14475e-06
0.930339 0.728804 -2.80415e-06
0.941039 0.732164 -2.55085e-06
0.95174 0.735524 -2.36754e-06
0.962392 0.738712 -2.20578e-06
0.972997 0.74173 -2.06304e-06
0.983602 0.744748 -1.96986e-06
0.994207 0.747766 -1.89199e-06
0.137075 0.0175011 -2.00695e-05
0.147059 0.0351452 -2.59675e-05
0.157042 0.0527893 -3.01883e-05
0.167026 0.0704333 -3.44215e-05
0.177193 0.087606 -3.79209e-05
0.187542 0.104307 -4.04742e-05
0.197891 0.121008 -4.32458e-05
0.208241 0.13771 -4.67782e-05
0.21867 0.154043 -5.0305e-05
0.229179 0.170009 -5.36388e-05
0.239689 0.185974 -5.7852e-05
0.250198 0.20194 -6.3873e-05
0.260776 0.217457 -7.03678e-05
0.271423 0.232525 -7.6993e-05
0.28207 0.247593 -8.55495e-05
0.292717 0.262662 -9.7626e-05
0.303424 0.277228 -0.000110757
0.314191 0.291293 -0.000124124
0.324959 0.305358 -0.00014084
0.335726 0.319423 -0.000163392
0.346545 0.332962 -0.000187003
0.357414 0.345974 -0.000209688
0.368284 0.358986 -0.000236691
0.379154 0.371998 -0.000271278
0.390067 0.384479 -0.000304793
0.401022 0.396428 -0.000333547
0.411977 0.408377 -0.000365914
0.422932 0.420327 -0.000405448
0.43392 0.431753 -0.000439044
0.444942 0.442658 -0.000462069
0.455964 0.453562 -0.000486657
0.466985 0.464466 -0.000516173
0.478031 0.474867 -0.000534641
0.489101 0.484766 -0.000538518
0.500171 0.494664 -0.000542809
0.511241 0.504562 -0.000550308
0.522326 0.513984 -0.000545111
0.533428 0.52293 -0.000526187
0.544529 0.531875 -0.000508768
0.555631 0.540821 -0.000494659
0.566739 0.549322 -0.000470472
0.577854 0.557378 -0.000437312
0.588969 0.565435 -0.000407758
0.600084 0.573491 -0.000382466
0.611198 0.581137 -0.000351515
0.62231 0.588373 -0.000316754
0.633422 0.595609 -0.000286805
0.644534 0.602845 -0.000261439
0.655636 0.609706 -0.000233983
0.666728 0.616193 -0.00020599
0.67782 0.62268 -0.000182532
0.688912 0.629167 -0.000162993
0.699987 0.635315 -0.000143216
0.711046 0.641124 -0.000124161
0.722105 0.646933 -0.000108513
0.733163 0.652741 -9.56505e-05
0.744197 0.658245 -8.31558e-05
0.755207 0.663444 -7.15231e-05
0.766217 0.668644 -6.20851e-05
0.777227 0.673843 -5.43881e-05
0.788206 0.678769 -4.70918e-05
0.799156 0.683423 -4.04293e-05
0.810105 0.688077 -3.50555e-05
0.821055 0.692731 -3.06877e-05
0.831968 0.697142 -2.66087e-05
0.842847 0.701311 -2.29246e-05
0.853725 0.705479 -1.99638e-05
0.864603 0.709647 -1.75668e-05
0.875442 0.7136 -1.53546e-05
0.88624 0.717336 -1.3374e-05
0.897039 0.721073 -1.17995e-05
0.907837 0.724809 -1.05465e-05
0.918591 0.728354 -9.41131e-06
0.9293 0.731706 -8.4116e-06
0.940008 0.735059 -7.6509e-06
0.950717 0.738411 -7.08684e-06
0.961379 0.741593 -6.59894e-06
0.971992 0.744605 -6.18437e-06
0.982606 0.747616 -5.90623e-06
0.99322 0.750627 -5.69411e-06
0.134907 0.0232241 -3.49859e-05
0.144942 0.0407421 -4.39448e-05
0.154977 0.05826 -5.05218e-05
0.165011 0.075778 -5.71272e-05
0.175223 0.092834 -6.26612e-05
0.185613 0.109428 -6.6849e-05
0.196002 0.126022 -7.14436e-05
0.206391 0.142616 -7.71602e-05
0.216857 0.158852 -8.29685e-05
0.227398 0.17473 -8.86099e-05
0.237939 0.190608 -9.57464e-05
0.24848 0.206486 -0.000105631
0.259087 0.221923 -0.000116451
0.269759 0.236919 -0.000127684
0.280432 0.251915 -0.000142143
0.291104 0.266911 -0.000161974
0.301834 0.281412 -0.000183787
0.312622 0.295418 -0.000206262
0.32341 0.309424 -0.000234245
0.334197 0.32343 -0.000271017
0.345034 0.336914 -0.000309924
0.355921 0.349878 -0.000347729
0.366807 0.362842 -0.000392472
0.377694 0.375805 -0.000448245
0.388621 0.388242 -0.000502984
0.39959 0.400151 -0.000550623
0.410558 0.41206 -0.000603761
0.421527 0.423969 -0.000666589
0.432528 0.435359 -0.000721023
0.443561 0.44623 -0.000759287
0.454593 0.457102 -0.000799351
0.465626 0.467973 -0.00084505
0.476682 0.478344 -0.000874735
0.487762 0.488215 -0.00088203
0.498841 0.498086 -0.000888913
0.509921 0.507957 -0.000898645
0.521015 0.517354 -0.000890102
0.532125 0.526277 -0.000860585
0.543235 0.5352 -0.000832217
0.554345 0.544123 -0.000807231
0.565461 0.552603 -0.000768114
0.576583 0.560641 -0.000715457
0.587706 0.568679 -0.000667389
0.598829 0.576716 -0.000624784
0.609949 0.584345 -0.000574727
0.621068 0.591565 -0.000519147
0.632187 0.598785 -0.000470359
0.643306 0.606005 -0.00042808
0.654415 0.612852 -0.000383564
0.665514 0.619326 -0.000338558
0.676612 0.625799 -0.000300224
0.687711 0.632273 -0.000267727
0.698793 0.638408 -0.000235536
0.709859 0.644205 -0.000204738
0.720924 0.650003 -0.000179063
0.731989 0.6558 -0.000157648
0.74303 0.661293 -0.000137218
0.754047 0.666482 -0.000118319
0.765064 0.671671 -0.000102768
0.77608 0.67686 -8.99231e-05
0.787067 0.681777 -7.79396e-05
0.798024 0.686422 -6.70654e-05
0.80898 0.691066 -5.81769e-05
0.819937 0.695711 -5.08692e-05
0.830858 0.700114 -4.41435e-05
0.841744 0.704274 -3.81081e-05
0.85263 0.708434 -3.31956e-05
0.863516 0.712594 -2.91759e-05
0.874362 0.716538 -2.55166e-05
0.885168 0.720267 -2.22639e-05
0.895975 0.723996 -1.96451e-05
0.906781 0.727725 -1.75384e-05
0.917543 0.731262 -1.56556e-05
0.92826 0.734608 -1.40127e-05
0.938978 0.737954 -1.27448e-05
0.949695 0.741299 -1.17907e-05
0.960365 0.744474 -1.09791e-05
0.970988 0.747479 -1.03022e-05
0.98161 0.750484 -9.84207e-06
0.992233 0.753488 -9.51038e-06
0.132739 0.0289471 -5.1393e-05
0.142825 0.046339 -6.30528e-05
0.152911 0.0637308 -7.17954e-05
0.162996 0.0811226 -8.05749e-05
0.173254 0.098062 -8.80362e-05
0.183683 0.114549 -9.38788e-05
0.194113 0.131036 -0.000100329
0.204542 0.147523 -0.000108203
0.215043 0.163661 -0.000116318
0.225616 0.179451 -0.000124407
0.236189 0.195241 -0.000134618
0.246763 0.211031 -0.000148414
0.257398 0.226388 -0.000163663
0.268096 0.241312 -0.000179775
0.278794 0.256236 -0.000200412
0.289492 0.27116 -0.000228072
0.300245 0.285596 -0.000258673
0.311053 0.299543 -0.000290625
0.32186 0.313489 -0.000330189
0.332668 0.327436 -0.00038108
0.343524 0.340867 -0.000435143
0.354427 0.353782 -0.000488355
0.36533 0.366697 -0.000550932
0.376233 0.379612 -0.000627235
0.387176 0.392004 -0.000702435
0.398158 0.403873 -0.00076896
0.40914 0.415742 -0.000842508
0.420122 0.427611 -0.0009272
0.431135 0.438965 -0.00100102
0.442179 0.449803 -0.00105436
0.453223 0.460641 -0.00110924
0.464267 0.471479 -0.00116928
0.475334 0.48182 -0.00120861
0.486423 0.491664 -0.00121946
0.497512 0.501508 -0.0012285
0.508601 0.511352 -0.00123894
0.519704 0.520724 -0.0012261
0.530822 0.529624 -0.00118675
0.54194 0.538525 -0.00114758
0.553058 0.547425 -0.00111096
0.564183 0.555885 -0.00105682
0.575313 0.563904 -0.00098588
0.586443 0.571922 -0.000919887
0.597573 0.579941 -0.000859853
0.608701 0.587553 -0.000791129
0.619827 0.594757 -0.000715959
0.630952 0.601962 -0.000649003
0.642078 0.609166 -0.000589974
0.653194 0.615998 -0.000528933
0.664299 0.622458 -0.000467837
0.675405 0.628919 -0.000415132
0.68651 0.635379 -0.000369853
0.697599 0.641502 -0.000325644
0.708671 0.647287 -0.000283665
0.719743 0.653073 -0.000248258
0.730815 0.658858 -0.000218393
0.741863 0.664341 -0.000190255
0.752887 0.669519 -0.000164384
0.763911 0.674698 -0.000142864
0.774934 0.679877 -0.000124912
0.785928 0.684784 -0.000108352
0.796892 0.68942 -9.34064e-05
0.807856 0.694056 -8.10641e-05
0.818819 0.698691 -7.08266e-05
0.829748 0.703085 -6.15031e-05
0.840642 0.707237 -5.31804e-05
0.851535 0.711389 -4.63394e-05
0.862429 0.715541 -4.06956e-05
0.873282 0.719477 -3.56096e-05
0.884097 0.723198 -3.11134e-05
0.894911 0.72692 -2.74583e-05
0.905725 0.730641 -2.44932e-05
0.916495 0.734171 -2.18705e-05
0.927221 0.73751 -1.95972e-05
0.937947 0.740848 -1.7824e-05
0.948673 0.744187 -1.64746e-05
0.959351 0.747355 -1.53419e-05
0.969983 0.750353 -1.44104e-05
0.980615 0.753352 -1.37724e-05
0.991246 0.75635 -1.33321e-05
0.130572 0.0346701 -6.92336e-05
0.140708 0.0519358 -8.33171e-05
0.150845 0.0692016 -9.40746e-05
0.160981 0.0864673 -0.00010488
0.171285 0.10329 -0.00011416
0.181754 0.11967 -0.000121673
0.192223 0.13605 -0.000130004
0.202693 0.152429 -0.000140029
0.21323 0.16847 -0.000150474
0.223835 0.184172 -0.000161139
0.23444 0.199874 -0.00017456
0.245045 0.215576 -0.000192338
0.255709 0.230853 -0.000212115
0.266432 0.245705 -0.000233357
0.277156 0.260558 -0.00026041
0.287879 0.27541 -0.000295998
0.298655 0.28978 -0.000335493
0.309483 0.303667 -0.000377242
0.320311 0.317555 -0.000428627
0.33114 0.331443 -0.000493561
0.342014 0.34482 -0.000562655
0.352933 0.357686 -0.00063147
0.363853 0.370552 -0.000711857
0.374773 0.383419 -0.000808086
0.38573 0.395766 -0.000903057
0.396726 0.407595 -0.000988333
0.407721 0.419424 -0.00108178
0.418717 0.431253 -0.00118703
0.429743 0.44257 -0.00127898
0.440798 0.453376 -0.00134702
0.451853 0.464181 -0.00141593
0.462908 0.474986 -0.00148869
0.473985 0.485297 -0.00153635
0.485084 0.495113 -0.00155063
0.496182 0.50493 -0.00156129
0.507281 0.514746 -0.00157119
0.518393 0.524093 -0.00155332
0.52952 0.532971 -0.00150464
0.540646 0.541849 -0.00145472
0.551772 0.550727 -0.00140594
0.562904 0.559166 -0.00133681
0.574042 0.567166 -0.00124856
0.58518 0.575166 -0.00116517
0.596317 0.583166 -0.00108777
0.607452 0.590761 -0.00100087
0.618585 0.597949 -0.000907142
0.629718 0.605138 -0.000822651
0.64085 0.612327 -0.000747157
0.651973 0.619144 -0.000670138
0.663085 0.625591 -0.000593749
0.674197 0.632038 -0.000527167
0.68531 0.638484 -0.000469359
0.696405 0.644595 -0.000413529
0.707484 0.650369 -0.000360863
0.718563 0.656143 -0.00031602
0.729642 0.661917 -0.000277858
0.740696 0.667388 -0.000242237
0.751727 0.672557 -0.000209657
0.762757 0.677725 -0.000182316
0.773788 0.682894 -0.000159327
0.784789 0.687792 -0.000138301
0.79576 0.692418 -0.000119411
0.806731 0.697045 -0.000103681
0.817702 0.701672 -9.05409e-05
0.828638 0.706057 -7.8669e-05
0.839539 0.7102 -6.81161e-05
0.85044 0.714344 -5.93739e-05
0.861341 0.718487 -5.21137e-05
0.872203 0.722416 -4.56218e-05
0.883025 0.72613 -3.99074e-05
0.893847 0.729843 -3.52264e-05
0.904669 0.733557 -3.14032e-05
0.915447 0.73708 -2.80484e-05
0.926182 0.740411 -2.51559e-05
0.936916 0.743743 -2.28804e-05
0.94765 0.747075 -2.11335e-05
0.958338 0.750236 -1.96825e-05
0.968978 0.753228 -1.85028e-05
0.979619 0.75622 -1.76919e-05
0.99026 0.759211 -1.71515e-05
0.128404 0.0403931 -8.8399e-05
0.138591 0.0575327 -0.000104667
0.148779 0.0746723 -0.000117302
0.158967 0.0918119 -0.000129998
0.169315 0.108518 -0.000141016
0.179825 0.124791 -0.000150211
0.190334 0.141063 -0.000160439
0.200844 0.157336 -0.000172616
0.211417 0.173279 -0.000185429
0.222054 0.188893 -0.000198789
0.23269 0.204508 -0.000215537
0.243327 0.220122 -0.000237373
0.25402 0.235319 -0.000261795
0.264769 0.250099 -0.000288395
0.275517 0.264879 -0.000322066
0.286266 0.279659 -0.000365679
0.297065 0.293964 -0.000414195
0.307914 0.307792 -0.000466012
0.318762 0.321621 -0.000529389
0.329611 0.335449 -0.00060829
0.340503 0.348773 -0.000692322
0.35144 0.36159 -0.000776854
0.362376 0.374408 -0.000874928
0.373312 0.387226 -0.000990503
0.384285 0.399529 -0.00110463
0.395294 0.411318 -0.00120841
0.406303 0.423107 -0.00132115
0.417312 0.434896 -0.00144575
0.42835 0.446176 -0.00155469
0.439417 0.456948 -0.00163697
0.450483 0.467721 -0.00171902
0.46155 0.478493 -0.00180304
0.472637 0.488773 -0.00185789
0.483745 0.498563 -0.00187537
0.494853 0.508352 -0.00188705
0.505961 0.518141 -0.00189534
0.517082 0.527463 -0.00187189
0.528217 0.536319 -0.00181418
0.539352 0.545174 -0.00175351
0.550486 0.554029 -0.00169224
0.561626 0.562448 -0.00160827
0.572771 0.570429 -0.00150349
0.583916 0.57841 -0.00140317
0.595062 0.586391 -0.0013086
0.606204 0.593969 -0.00120406
0.617343 0.601141 -0.00109266
0.628483 0.608314 -0.000991243
0.639623 0.615487 -0.000899653
0.650752 0.62229 -0.000807208
0.661871 0.628724 -0.000716232
0.67299 0.635157 -0.000636257
0.684109 0.64159 -0.000566229
0.695211 0.647688 -0.00049917
0.706297 0.653451 -0.000436264
0.717382 0.659213 -0.000382284
0.728468 0.664975 -0.00033601
0.739529 0.670436 -0.000293131
0.750567 0.675594 -0.000254082
0.761604 0.680753 -0.000221074
0.772642 0.685911 -0.000193141
0.783649 0.690799 -0.00016776
0.794628 0.695417 -0.000145042
0.805606 0.700034 -0.000125996
0.816584 0.704652 -0.000109992
0.827528 0.709028 -9.56218e-05
0.838436 0.713163 -8.2892e-05
0.849345 0.717299 -7.22792e-05
0.860254 0.721434 -6.34174e-05
0.871123 0.725355 -5.55408e-05
0.881953 0.729061 -4.86319e-05
0.892783 0.732767 -4.29371e-05
0.903613 0.736473 -3.82602e-05
0.9144 0.739988 -3.41815e-05
0.925142 0.743313 -3.068e-05
0.935885 0.746638 -2.79065e-05
0.946628 0.749962 -2.57621e-05
0.957324 0.753117 -2.39958e-05
0.967974 0.756102 -2.25739e-05
0.978623 0.759088 -2.15949e-05
0.989273 0.762073 -2.09613e-05
0.126236 0.0461161 -0.000108806
0.136475 0.0631296 -0.00012706
0.146713 0.0801431 -0.000141448
0.156952 0.0971566 -0.000155918
0.167346 0.113746 -0.000168608
0.177895 0.129912 -0.000179493
0.188445 0.146077 -0.00019163
0.198994 0.162243 -0.000205966
0.209604 0.178089 -0.000221193
0.220272 0.193615 -0.00023736
0.230941 0.209141 -0.00025754
0.241609 0.224667 -0.000283515
0.252331 0.239784 -0.000312705
0.263105 0.254492 -0.00034487
0.273879 0.2692 -0.000385334
0.284653 0.283909 -0.000437074
0.295475 0.298148 -0.000494736
0.306344 0.311917 -0.000556848
0.317213 0.325687 -0.000632337
0.328082 0.339456 -0.000725131
0.338993 0.352725 -0.00082401
0.349946 0.365494 -0.000924299
0.360899 0.378263 -0.00103986
0.371851 0.391032 -0.00117423
0.382839 0.403291 -0.00130694
0.393862 0.41504 -0.00142888
0.404885 0.426789 -0.00156024
0.415907 0.438538 -0.00170305
0.426958 0.449782 -0.00182796
0.438035 0.460521 -0.00192388
0.449113 0.47126 -0.00201816
0.460191 0.481999 -0.00211214
0.471288 0.49225 -0.00217319
0.482406 0.502012 -0.00219348
0.493524 0.511774 -0.00220555
0.504641 0.521536 -0.00221135
0.515771 0.530833 -0.00218187
0.526914 0.539666 -0.00211533
0.538057 0.548499 -0.00204391
0.5492 0.557332 -0.00196993
0.560348 0.565729 -0.00187131
0.571501 0.573692 -0.00175066
0.582653 0.581654 -0.00163388
0.593806 0.589617 -0.00152242
0.604955 0.597176 -0.00140078
0.616102 0.604334 -0.00127249
0.627248 0.611491 -0.00115474
0.638395 0.618648 -0.00104748
0.649531 0.625436 -0.000940155
0.660657 0.631856 -0.000835235
0.671783 0.638276 -0.000742343
0.682908 0.644696 -0.00066044
0.694017 0.650781 -0.000582543
0.705109 0.656532 -0.000509809
0.716202 0.662283 -0.00044699
0.727294 0.668034 -0.000392814
0.738362 0.673483 -0.000342902
0.749407 0.678632 -0.00029761
0.760451 0.68378 -0.000259094
0.771495 0.688928 -0.000226323
0.78251 0.693806 -0.0001967
0.793496 0.698415 -0.000170265
0.804481 0.703023 -0.000147978
0.815467 0.707632 -0.000129158
0.826418 0.712 -0.000112342
0.837334 0.716127 -9.74869e-05
0.84825 0.720254 -8.50365e-05
0.859166 0.724381 -7.4593e-05
0.870044 0.728293 -6.53543e-05
0.880881 0.731992 -5.72739e-05
0.891719 0.735691 -5.05791e-05
0.902557 0.739389 -4.50556e-05
0.913352 0.742897 -4.02622e-05
0.924103 0.746215 -3.61613e-05
0.934854 0.749532 -3.2895e-05
0.945606 0.75285 -3.03548e-05
0.956311 0.755998 -2.82766e-05
0.966969 0.758977 -2.66179e-05
0.977628 0.761955 -2.54757e-05
0.988286 0.764934 -2.47548e-05
0.124068 0.0518391 -0.000130313
0.134358 0.0687265 -0.000150383
0.144647 0.0856138 -0.000166412
0.154937 0.102501 -0.000182551
0.165376 0.118974 -0.000196861
0.175966 0.135033 -0.000209437
0.186556 0.151091 -0.000223485
0.197145 0.167149 -0.000239988
0.20779 0.182898 -0.000257677
0.218491 0.198336 -0.000276744
0.229191 0.213774 -0.00030044
0.239892 0.229212 -0.000330631
0.250642 0.244249 -0.00036471
0.261441 0.258886 -0.000402611
0.272241 0.273522 -0.000450005
0.283041 0.288158 -0.000509954
0.293885 0.302331 -0.000576882
0.304775 0.316042 -0.000649454
0.315664 0.329752 -0.000737109
0.326554 0.343463 -0.000843697
0.337483 0.356678 -0.000957337
0.348452 0.369398 -0.00107333
0.359421 0.382119 -0.00120611
0.370391 0.394839 -0.00135871
0.381394 0.407054 -0.00150948
0.39243 0.418763 -0.00164914
0.403466 0.430471 -0.00179837
0.414502 0.44218 -0.00195835
0.425565 0.453388 -0.00209831
0.436654 0.464094 -0.0022072
0.447743 0.4748 -0.00231279
0.458832 0.485506 -0.00241555
0.46994 0.495726 -0.00248194
0.481067 0.505461 -0.00250461
0.492194 0.515196 -0.00251647
0.503321 0.52493 -0.00251904
0.51446 0.534203 -0.00248319
0.525612 0.543013 -0.00240793
0.536763 0.551823 -0.00232574
0.547914 0.560634 -0.00223897
0.55907 0.569011 -0.00212596
0.57023 0.576954 -0.00199002
0.58139 0.584898 -0.00185722
0.59255 0.592842 -0.00172924
0.603707 0.600384 -0.00159105
0.61486 0.607526 -0.00144661
0.626014 0.614667 -0.00131309
0.637167 0.621808 -0.00119063
0.64831 0.628582 -0.00106897
0.659443 0.634989 -0.000950709
0.670575 0.641395 -0.000845371
0.681708 0.647802 -0.000751962
0.692823 0.653875 -0.000663615
0.703922 0.659614 -0.000581446
0.715021 0.665353 -0.000510086
0.72612 0.671092 -0.000448235
0.737195 0.676531 -0.000391515
0.748246 0.681669 -0.000340198
0.759298 0.686807 -0.000296334
0.770349 0.691945 -0.000258843
0.781371 0.696814 -0.000225093
0.792364 0.701413 -0.000195049
0.803356 0.706013 -0.000169598
0.814349 0.710612 -0.000148019
0.825307 0.714971 -0.00012881
0.836231 0.71909 -0.00011188
0.847155 0.723209 -9.76281e-05
0.858079 0.727327 -8.56269e-05
0.868964 0.731232 -7.50501e-05
0.87981 0.734923 -6.58209e-05
0.890656 0.738614 -5.81414e-05
0.901501 0.742305 -5.17809e-05
0.912304 0.745806 -4.62824e-05
0.923064 0.749117 -4.15918e-05
0.933824 0.752427 -3.78386e-05
0.944583 0.755738 -3.49056e-05
0.955297 0.758879 -3.25194e-05
0.965964 0.761851 -3.0629e-05
0.976632 0.764823 -2.93283e-05
0.9873 0.767795 -2.85256e-05
0.121941 0.0577465 -0.000153302
0.132279 0.0745039 -0.000175146
0.142617 0.0912614 -0.00019272
0.152955 0.108019 -0.000210468
0.163438 0.124371 -0.000226392
0.174066 0.140319 -0.000240696
0.184693 0.156267 -0.000256715
0.195321 0.172215 -0.000275461
0.206 0.187862 -0.000295736
0.216731 0.203209 -0.000317869
0.227462 0.218556 -0.000345271
0.238193 0.233903 -0.000379874
0.248971 0.248857 -0.0004191
0.259795 0.263419 -0.000463049
0.270619 0.27798 -0.000517691
0.281443 0.292541 -0.000586143
0.29231 0.306646 -0.00066269
0.303219 0.320295 -0.000746111
0.314128 0.333943 -0.000846263
0.325037 0.347592 -0.000966858
0.335984 0.36075 -0.0010955
0.34697 0.37342 -0.00122743
0.357955 0.386089 -0.00137748
0.368941 0.398758 -0.00154814
0.379958 0.410926 -0.00171677
0.391008 0.422592 -0.00187397
0.402057 0.434258 -0.00204062
0.413107 0.445925 -0.00221698
0.424181 0.457093 -0.0023713
0.435281 0.467764 -0.00249258
0.446381 0.478435 -0.00260863
0.457481 0.489106 -0.00271907
0.468599 0.499294 -0.00278997
0.479736 0.509 -0.00281442
0.490873 0.518705 -0.00282531
0.502009 0.528411 -0.00282377
0.513157 0.537656 -0.00278106
0.524316 0.546442 -0.00269685
0.535476 0.555228 -0.00260358
0.546635 0.564014 -0.00250366
0.557799 0.572369 -0.00237623
0.568966 0.580292 -0.00222519
0.580134 0.588215 -0.00207651
0.591301 0.596138 -0.00193206
0.602465 0.603662 -0.00177761
0.613625 0.610786 -0.0016174
0.624785 0.61791 -0.00146843
0.635946 0.625035 -0.001331
0.647095 0.631793 -0.00119535
0.658235 0.638184 -0.0010641
0.669374 0.644576 -0.000946599
0.680513 0.650968 -0.000841896
0.691635 0.657027 -0.000743353
0.702741 0.662754 -0.000651997
0.713846 0.66848 -0.000572283
0.724952 0.674206 -0.000502892
0.736033 0.679633 -0.000439509
0.747091 0.68476 -0.000382301
0.75815 0.689887 -0.000333186
0.769208 0.695014 -0.000291041
0.780237 0.699872 -0.000253234
0.791236 0.704461 -0.000219645
0.802236 0.709051 -0.000191075
0.813236 0.71364 -0.000166763
0.824201 0.71799 -0.000145192
0.835133 0.722099 -0.000126214
0.846064 0.726209 -0.000110177
0.856995 0.730319 -9.66269e-05
0.867888 0.734215 -8.47229e-05
0.878741 0.737898 -7.43551e-05
0.889595 0.741581 -6.56967e-05
0.900449 0.745263 -5.85009e-05
0.911259 0.748756 -5.23008e-05
0.922027 0.752059 -4.70242e-05
0.932796 0.755362 -4.27856e-05
0.943564 0.758665 -3.94597e-05
0.954286 0.761799 -3.67669e-05
0.964962 0.764764 -3.46475e-05
0.975638 0.767729 -3.31912e-05
0.986315 0.770695 -3.23119e-05
0.119855 0.0638383 -0.00017791
0.130239 0.080462 -0.000201417
0.140623 0.0970856 -0.000220452
0.151006 0.113709 -0.00023975
0.16153 0.129938 -0.000257289
0.172194 0.145772 -0.000273359
0.182858 0.161606 -0.000291411
0.193522 0.17744 -0.000312483
0.204234 0.192983 -0.000335481
0.214994 0.208235 -0.000360853
0.225754 0.223488 -0.000392155
0.236514 0.23874 -0.000431385
0.247318 0.253608 -0.000476034
0.258165 0.268091 -0.000526345
0.269013 0.282575 -0.000588558
0.27986 0.297058 -0.000665824
0.290748 0.311091 -0.00075235
0.301677 0.324675 -0.000846992
0.312605 0.338259 -0.00095996
0.323533 0.351843 -0.00109478
0.334498 0.364943 -0.00123863
0.345499 0.377558 -0.00138669
0.3565 0.390174 -0.00155403
0.367501 0.402789 -0.00174251
0.378532 0.414907 -0.00192878
0.389595 0.426529 -0.00210322
0.400657 0.438151 -0.00228676
0.411719 0.449772 -0.0024787
0.422806 0.4609 -0.00264664
0.433917 0.471533 -0.00277957
0.445028 0.482167 -0.00290518
0.456139 0.4928 -0.00302222
0.467267 0.502954 -0.00309676
0.478413 0.512628 -0.00312227
0.489559 0.522302 -0.00313143
0.500705 0.531976 -0.00312496
0.511861 0.541193 -0.00307484
0.523029 0.549953 -0.00298139
0.534196 0.558713 -0.00287676
0.545364 0.567472 -0.0027634
0.556535 0.575803 -0.00262154
0.567709 0.583704 -0.00245556
0.578884 0.591605 -0.00229116
0.590059 0.599507 -0.00213039
0.60123 0.60701 -0.00195998
0.612397 0.614115 -0.00178438
0.623564 0.621221 -0.00162031
0.634731 0.628326 -0.0014682
0.645887 0.635067 -0.00131892
0.657033 0.641443 -0.00117506
0.668178 0.647819 -0.00104572
0.679324 0.654194 -0.000929981
0.690453 0.660238 -0.000821517
0.701565 0.665951 -0.000721236
0.712677 0.671664 -0.000633383
0.723788 0.677376 -0.000556618
0.734877 0.68279 -0.000486736
0.745942 0.687904 -0.000423784
0.757006 0.693019 -0.000369532
0.768071 0.698134 -0.000322819
0.779107 0.70298 -0.000281037
0.790114 0.707559 -0.000243976
0.80112 0.712137 -0.000212341
0.812127 0.716716 -0.000185335
0.823099 0.721055 -0.000161438
0.834038 0.725155 -0.000140444
0.844976 0.729255 -0.000122645
0.855915 0.733355 -0.000107562
0.866815 0.737242 -9.43457e-05
0.877676 0.740916 -8.28524e-05
0.888538 0.74459 -7.32238e-05
0.899399 0.748263 -6.51983e-05
0.910218 0.751748 -5.83021e-05
0.920994 0.755043 -5.24445e-05
0.93177 0.758337 -4.77237e-05
0.942546 0.761632 -4.40066e-05
0.953277 0.764758 -4.10098e-05
0.963962 0.767716 -3.86646e-05
0.974647 0.770674 -3.7056e-05
0.985332 0.773631 -3.61011e-05
0.117769 0.0699301 -0.000203615
0.128199 0.08642 -0.000228593
0.138628 0.10291 -0.000248995
0.149057 0.1194 -0.00026977
0.159622 0.135505 -0.000288893
0.170322 0.151224 -0.00030673
0.181022 0.166944 -0.000326823
0.191722 0.182664 -0.000350248
0.202467 0.198103 -0.000376028
0.213256 0.213261 -0.000404726
0.224045 0.228419 -0.000440014
0.234835 0.243577 -0.00048396
0.245665 0.258359 -0.00053416
0.256536 0.272764 -0.000590975
0.267407 0.287169 -0.000660869
0.278278 0.301575 -0.000747029
0.289187 0.315537 -0.000843631
0.300135 0.329056 -0.000949575
0.311082 0.342575 -0.00107533
0.322029 0.356094 -0.00122423
0.333011 0.369135 -0.00138316
0.344028 0.381697 -0.00154713
0.355044 0.394258 -0.00173134
0.366061 0.40682 -0.00193707
0.377107 0.418889 -0.00214037
0.388182 0.430466 -0.00233142
0.399257 0.442043 -0.00253099
0.410332 0.453619 -0.0027375
0.421431 0.464706 -0.00291813
0.432553 0.475302 -0.00306189
0.443675 0.485898 -0.00319607
0.454796 0.496494 -0.00331869
0.465935 0.506613 -0.00339609
0.47709 0.516256 -0.00342209
0.488245 0.525899 -0.00342892
0.4994 0.535542 -0.00341698
0.510565 0.54473 -0.00335925
0.521741 0.553464 -0.00325654
0.532916 0.562197 -0.00314058
0.544092 0.570931 -0.00301388
0.555271 0.579237 -0.00285792
0.566453 0.587116 -0.00267748
0.577635 0.594996 -0.00249783
0.588816 0.602875 -0.00232123
0.599994 0.610358 -0.00213546
0.611168 0.617445 -0.00194512
0.622342 0.624531 -0.00176654
0.633515 0.631618 -0.00160033
0.644678 0.638341 -0.00143798
0.655831 0.644701 -0.00128208
0.666983 0.651061 -0.00114138
0.678136 0.657421 -0.00101505
0.689271 0.66345 -0.000897075
0.700389 0.669149 -0.000788254
0.711507 0.674847 -0.000692585
0.722625 0.680546 -0.000608722
0.73372 0.685947 -0.000532586
0.744792 0.691049 -0.000464112
0.755863 0.696151 -0.000404907
0.766935 0.701254 -0.000353776
0.777977 0.706089 -0.00030815
0.788991 0.710657 -0.000267733
0.800004 0.715224 -0.000233127
0.811017 0.719792 -0.000203503
0.821997 0.724121 -0.000177345
0.832943 0.728211 -0.000154392
0.843889 0.732301 -0.000134876
0.854835 0.736391 -0.000118297
0.865742 0.740269 -0.000103799
0.876611 0.743934 -9.1207e-05
0.88748 0.747599 -8.06293e-05
0.898349 0.751264 -7.17902e-05
0.909176 0.754739 -6.42116e-05
0.91996 0.758026 -5.7785e-05
0.930745 0.761313 -5.25911e-05
0.941529 0.764599 -4.84894e-05
0.952268 0.767718 -4.51943e-05
0.962962 0.770668 -4.26288e-05
0.973655 0.773618 -4.08723e-05
0.984349 0.776568 -3.98439e-05
0.115683 0.076022 -0.000230396
0.126158 0.092378 -0.000256697
0.136633 0.108734 -0.000278389
0.147109 0.12509 -0.000300581
0.157714 0.141071 -0.000321259
0.168451 0.156677 -0.000340867
0.179187 0.172283 -0.000363015
0.189923 0.187889 -0.000388826
0.2007 0.203223 -0.000417449
0.211519 0.218287 -0.000449559
0.222337 0.233351 -0.000488922
0.233155 0.248414 -0.000537686
0.244012 0.26311 -0.000593555
0.254906 0.277437 -0.000657012
0.265801 0.291764 -0.000734697
0.276695 0.306091 -0.000829837
0.287626 0.319982 -0.000936591
0.298592 0.333437 -0.0010539
0.309559 0.346891 -0.00119241
0.320525 0.360346 -0.00135527
0.331525 0.373327 -0.00152908
0.342557 0.385835 -0.00170872
0.353589 0.398343 -0.00190939
0.364621 0.410851 -0.00213179
0.375681 0.422871 -0.0023515
0.386769 0.434403 -0.0025585
0.397857 0.445935 -0.00277325
0.408945 0.457466 -0.00299334
0.420056 0.468512 -0.00318574
0.431189 0.47907 -0.00333947
0.442321 0.489629 -0.00348127
0.453454 0.500188 -0.00360852
0.464603 0.510273 -0.00368798
0.475767 0.519885 -0.00371391
0.486931 0.529496 -0.00371784
0.498096 0.539108 -0.00369997
0.50927 0.548267 -0.00363436
0.520453 0.556975 -0.0035224
0.531637 0.565682 -0.00339514
0.54282 0.574389 -0.00325524
0.554007 0.582672 -0.00308547
0.565196 0.590529 -0.00289104
0.576385 0.598386 -0.0026966
0.587574 0.606243 -0.00250468
0.598759 0.613706 -0.00230411
0.609939 0.620774 -0.00209966
0.62112 0.627842 -0.00190717
0.6323 0.63491 -0.0017274
0.64347 0.641616 -0.00155254
0.654629 0.647959 -0.00138515
0.665788 0.654303 -0.00123358
0.676947 0.660647 -0.00109709
0.688089 0.666661 -0.000970009
0.699213 0.672346 -0.000853023
0.710338 0.678031 -0.000749859
0.721462 0.683716 -0.000659174
0.732564 0.689103 -0.000577031
0.743642 0.694193 -0.000503254
0.75472 0.699284 -0.000439279
0.765798 0.704374 -0.000383884
0.776848 0.709198 -0.000334547
0.787868 0.713754 -0.000290892
0.798888 0.718311 -0.00025341
0.809908 0.722868 -0.000221246
0.820895 0.727187 -0.000192894
0.831848 0.731267 -0.000168041
0.842801 0.735347 -0.000146856
0.853755 0.739428 -0.000128817
0.86467 0.743296 -0.00011307
0.875546 0.746952 -9.94077e-05
0.886423 0.750608 -8.79031e-05
0.8973 0.754264 -7.82678e-05
0.908134 0.757731 -7.00215e-05
0.918927 0.761009 -6.30383e-05
0.92972 0.764288 -5.73809e-05
0.940512 0.767566 -5.29019e-05
0.95126 0.770677 -4.93146e-05
0.961962 0.773619 -4.65344e-05
0.972664 0.776562 -4.46343e-05
0.983366 0.779504 -4.35348e-05
0.113597 0.0821138 -0.000258183
0.124118 0.0983361 -0.000285679
0.134639 0.114558 -0.000308595
0.14516 0.130781 -0.000332149
0.155807 0.146638 -0.000354358
0.166579 0.16213 -0.000375738
0.177351 0.177621 -0.000399956
0.188124 0.193113 -0.000428187
0.198933 0.208344 -0.000459711
0.209781 0.223313 -0.000495312
0.220629 0.238282 -0.000538834
0.231476 0.253251 -0.000592509
0.242359 0.26786 -0.000654155
0.253277 0.282109 -0.000724373
0.264195 0.296359 -0.000809942
0.275113 0.310608 -0.000914129
0.286065 0.324427 -0.00103109
0.29705 0.337817 -0.00115979
0.308036 0.351207 -0.00131099
0.319021 0.364597 -0.00148765
0.330038 0.377519 -0.00167613
0.341086 0.389973 -0.00187116