Variables = x, y, ugrad, ux, uy
ZONE I= 80 J= 80 F=point
0.139243 0.0117781 0.0028615 0.00246562 -0.0014522
0.149176 0.0295483 0.00382865 0.00328711 -0.00196303
0.159108 0.0473185 0.0046139 0.00398348 -0.00232807
0.169041 0.0650887 0.00543731 0.00471062 -0.00271559
0.179162 0.0823779 0.00592808 0.00502577 -0.00314385
0.189471 0.0991862 0.00646196 0.00548233 -0.00342066
0.199781 0.115995 0.00704388 0.00597231 -0.00373466
0.21009 0.132803 0.00779617 0.00661292 -0.0041291
0.220483 0.149234 0.00835093 0.00696111 -0.00461313
0.230961 0.165288 0.00905434 0.00754411 -0.00500676
0.241438 0.181341 0.00992261 0.00825488 -0.00550593
0.251916 0.197395 0.0111699 0.00929192 -0.00619901
0.262465 0.212992 0.0121861 0.0099079 -0.00709465
0.273087 0.228132 0.0135209 0.0109845 -0.00788376
0.283708 0.243272 0.0152255 0.0123448 -0.00891191
0.29433 0.258412 0.0176772 0.0143333 -0.010346
0.305014 0.273044 0.0197944 0.0155987 -0.012186
0.315761 0.287168 0.0224611 0.0176909 -0.0138395
0.326508 0.301292 0.025793 0.0202776 -0.0159404
0.337255 0.315416 0.0304023 0.0239163 -0.0187698
0.348055 0.329009 0.0343002 0.026083 -0.0222752
0.358908 0.34207 0.0389019 0.0295851 -0.0252602
0.369761 0.355131 0.0443976 0.0337172 -0.0288842
0.380615 0.368192 0.0516285 0.0392576 -0.0335312
0.391512 0.380717 0.057163 0.0417885 -0.0390042
0.402454 0.392706 0.0631939 0.046228 -0.0430864
0.413395 0.404695 0.0700128 0.0511631 -0.0477925
0.424337 0.416684 0.0785792 0.0575169 -0.0535397
0.435313 0.428148 0.0838776 0.058698 -0.0599165
0.446323 0.439085 0.089051 0.0623816 -0.0635501
0.457334 0.450022 0.0945974 0.0662088 -0.0675652
0.468344 0.46096 0.101455 0.0711348 -0.0723389
0.479379 0.471391 0.103683 0.0691142 -0.0772881
0.49044 0.481316 0.105206 0.0702118 -0.0783495
0.5015 0.491242 0.106827 0.0712285 -0.0796147
0.51256 0.501167 0.109339 0.0730324 -0.0813707
0.523637 0.510614 0.107017 0.0675783 -0.0829803
0.53473 0.519582 0.103932 0.0657095 -0.0805245
0.545824 0.528551 0.10112 0.0638613 -0.0784032
0.556917 0.537519 0.0991168 0.0626997 -0.0767651
0.568017 0.546041 0.0933261 0.055523 -0.075013
0.579125 0.554116 0.0871856 0.0519279 -0.0700344
0.590232 0.562191 0.0817268 0.0486076 -0.0657006
0.60134 0.570266 0.0771915 0.0459768 -0.0620054
0.612446 0.577929 0.0703844 0.0392404 -0.0584308
0.623551 0.585181 0.0636885 0.0355409 -0.0528495
0.634656 0.592433 0.0579306 0.0322679 -0.0481116
0.645761 0.599684 0.0531235 0.0296245 -0.0440965
0.656857 0.60656 0.0472738 0.0245745 -0.0403844
0.667942 0.613061 0.0417647 0.0217256 -0.0356691
0.679027 0.619561 0.0371577 0.0192832 -0.0317625
0.690113 0.626061 0.0333548 0.0173232 -0.0285034
0.701181 0.632222 0.0292031 0.0140885 -0.02558
0.712233 0.638042 0.0253958 0.0122562 -0.0222425
0.723285 0.643862 0.0222764 0.0107192 -0.0195279
0.734337 0.649683 0.0197288 0.00949685 -0.0172927
0.745364 0.655198 0.0171243 0.00763649 -0.0153273
0.756367 0.660407 0.0147699 0.00658682 -0.0132199
0.76737 0.665616 0.012865 0.00571729 -0.0115248
0.778373 0.670826 0.011319 0.00503007 -0.0101399
0.789346 0.675762 0.00980149 0.00402684 -0.0089361
0.800288 0.680425 0.00843693 0.00346528 -0.00769244
0.81123 0.685088 0.00733967 0.00300255 -0.00669742
0.822172 0.689751 0.00645129 0.00263793 -0.00588732
0.833079 0.694171 0.00560213 0.0021146 -0.00518772
0.843949 0.698347 0.00483873 0.00182519 -0.00448129
0.85482 0.702524 0.00422734 0.00158718 -0.00391807
0.865691 0.706701 0.0037341 0.00140043 -0.00346155
0.876521 0.710661 0.00327225 0.00113113 -0.00307053
0.887312 0.714405 0.00285719 0.000986072 -0.00268164
0.898102 0.718149 0.00252872 0.000867536 -0.00237525
0.908893 0.721893 0.00226849 0.000776217 -0.00213156
0.919638 0.725445 0.00203128 0.000639039 -0.00192814
0.930339 0.728804 0.00181999 0.000570399 -0.0017283
0.941039 0.732164 0.00166058 0.00051598 -0.00157839
0.95174 0.735524 0.00154367 0.000477074 -0.0014681
0.962392 0.738712 0.00144339 0.000408321 -0.00138443
0.972997 0.74173 0.00135605 0.000381431 -0.0013013
0.983602 0.744748 0.00129887 0.000362955 -0.00124713
0.994207 0.747766 0.00125487 0.000346856 -0.00120598
0.137075 0.0175011 0.00283177 0.00239025 -0.00151842
0.147059 0.0351452 0.00349954 0.00291453 -0.00193709
0.157042 0.0527893 0.00414729 0.00350198 -0.00222176
0.167026 0.0704333 0.00480768 0.00408664 -0.00253241
0.177193 0.087606 0.00529386 0.00441652 -0.00291879
0.187542 0.104307 0.00579179 0.00485024 -0.00316543
0.197891 0.121008 0.00631529 0.00528178 -0.00346203
0.208241 0.13771 0.00695651 0.00581634 -0.00381618
0.21867 0.154043 0.00752512 0.0061849 -0.00428654
0.229179 0.170009 0.00819619 0.00673548 -0.0046702
0.239689 0.185974 0.00900114 0.00736795 -0.00517048
0.250198 0.20194 0.0100921 0.00824508 -0.00581975
0.260776 0.217457 0.0111383 0.00888653 -0.00671503
0.271423 0.232525 0.0124227 0.00990252 -0.00750095
0.28207 0.247593 0.0140175 0.0111163 -0.00853919
0.292717 0.262662 0.0161934 0.0128188 -0.00989469
0.303424 0.277228 0.0183367 0.014093 -0.0117314
0.314191 0.291293 0.0208969 0.016063 -0.0133663
0.324959 0.305358 0.0240131 0.0183734 -0.0154611
0.335726 0.319423 0.0281186 0.0215108 -0.0181092
0.346545 0.332962 0.0320349 0.0236872 -0.0215674
0.357414 0.345974 0.0364513 0.0270128 -0.0244747
0.368284 0.358986 0.0415786 0.0307152 -0.0280242
0.379154 0.371998 0.0479965 0.0355147 -0.0322857
0.390067 0.384479 0.0536031 0.038187 -0.0376171
0.401022 0.396428 0.0594406 0.042518 -0.041538
0.411977 0.408377 0.065796 0.0469728 -0.0460724
0.422932 0.420327 0.0733263 0.0524985 -0.0511924
0.43392 0.431753 0.0788981 0.0541759 -0.0573576
0.444942 0.442658 0.0840629 0.0580211 -0.0608287
0.455964 0.453562 0.0892415 0.0615127 -0.0646547
0.466985 0.464466 0.0951129 0.0657841 -0.0686944
0.478031 0.474867 0.0979293 0.0647117 -0.073502
0.489101 0.484766 0.0997941 0.0663136 -0.0745745
0.500171 0.494664 0.101314 0.0672357 -0.0757882
0.511241 0.504562 0.103142 0.0686918 -0.0769401
0.522326 0.513984 0.101647 0.0644344 -0.0786151
0.533428 0.52293 0.0992103 0.0632376 -0.0764441
0.544529 0.531875 0.096556 0.0614419 -0.0744846
0.555631 0.540821 0.0942195 0.0601575 -0.0725147
0.566739 0.549322 0.0892603 0.0540605 -0.0710272
0.577854 0.557378 0.0838471 0.051039 -0.0665233
0.588969 0.565435 0.0786526 0.0477618 -0.0624903
0.600084 0.573491 0.0740098 0.0450758 -0.0586994
0.611198 0.581137 0.0678416 0.0390723 -0.0554602
0.62231 0.588373 0.0617445 0.0357125 -0.0503687
0.633422 0.595609 0.0562168 0.0324043 -0.0459378
0.644534 0.602845 0.0513884 0.0296903 -0.0419434
0.655636 0.609706 0.0459305 0.0250242 -0.038515
0.666728 0.616193 0.0408155 0.0223088 -0.0341793
0.67782 0.62268 0.0363518 0.0197767 -0.0305014
0.688912 0.629167 0.0325398 0.0177296 -0.0272856
0.699987 0.635315 0.0285872 0.0146504 -0.0245478
0.711046 0.641124 0.0250005 0.012838 -0.0214525
0.722105 0.646933 0.0219513 0.0112047 -0.0188763
0.733163 0.652741 0.0193903 0.00990329 -0.0166706
0.744197 0.658245 0.0168716 0.00808794 -0.0148066
0.755207 0.663444 0.0146278 0.00701789 -0.0128344
0.766217 0.668644 0.0127511 0.00607298 -0.011212
0.777227 0.673843 0.0111903 0.00532792 -0.00984051
0.788206 0.678769 0.00970478 0.00432929 -0.00868563
0.799156 0.683423 0.00839267 0.00374267 -0.00751194
0.810105 0.688077 0.00730494 0.00322988 -0.0065521
0.821055 0.692731 0.00640454 0.00282818 -0.00574627
0.831968 0.697142 0.00556563 0.00229902 -0.00506861
0.842847 0.701311 0.00482689 0.00199045 -0.00439738
0.853725 0.705479 0.00421814 0.00172181 -0.00385073
0.864603 0.709647 0.00371661 0.00151269 -0.00339484
0.875442 0.7136 0.00325727 0.00123682 -0.00301332
0.88624 0.717336 0.00285417 0.00107896 -0.00264238
0.897039 0.721073 0.00252618 0.000942005 -0.00234397
0.907837 0.724809 0.00226052 0.000837153 -0.00209979
0.918591 0.728354 0.00202332 0.000694631 -0.00190034
0.9293 0.731706 0.00181824 0.000617607 -0.00171014
0.940008 0.735059 0.00165874 0.000551617 -0.00156434
0.950717 0.738411 0.00153807 0.000504058 -0.00145313
0.961379 0.741593 0.00143714 0.000431446 -0.00137085
0.971992 0.744605 0.00135383 0.000399624 -0.0012935
0.982606 0.747616 0.00129761 0.000375496 -0.00124209
0.99322 0.750627 0.00125995 0.000353141 -0.00120945
0.134907 0.0232241 0.00314097 0.00260956 -0.00174811
0.144942 0.0407421 0.003717 0.00301615 -0.00217231
0.154977 0.05826 0.00435375 0.00360478 -0.00244146
0.165011 0.075778 0.00499932 0.00418043 -0.00274176
0.175223 0.092834 0.00545521 0.0044869 -0.00310274
0.185613 0.109428 0.00596786 0.00493563 -0.00335485
0.196002 0.126022 0.00650168 0.00536651 -0.00367047
0.206391 0.142616 0.00714476 0.00589436 -0.00403784
0.216857 0.158852 0.00770353 0.00624678 -0.004508
0.227398 0.17473 0.00840539 0.00681177 -0.00492447
0.237939 0.190608 0.00923734 0.00744004 -0.00547487
0.24848 0.206486 0.0103385 0.00830083 -0.0061629
0.259087 0.221923 0.0113781 0.00890982 -0.0070764
0.269759 0.236919 0.0127195 0.00994302 -0.00793235
0.280432 0.251915 0.0143618 0.0111368 -0.00906816
0.291104 0.266911 0.0165465 0.0127936 -0.0104933
0.301834 0.281412 0.0186702 0.0139935 -0.0123595
0.312622 0.295418 0.0213104 0.0159748 -0.0141046
0.32341 0.309424 0.0244768 0.0182205 -0.016344
0.334197 0.32343 0.0285396 0.0212406 -0.0190617
0.345034 0.336914 0.0323658 0.0232671 -0.0224986
0.355921 0.349878 0.0368535 0.0265929 -0.0255147
0.366807 0.362842 0.041976 0.0301561 -0.0291992
0.377694 0.375805 0.0482034 0.0347294 -0.033428
0.388621 0.388242 0.0535694 0.0371918 -0.0385546
0.39959 0.400151 0.0594385 0.0415525 -0.0425009
0.410558 0.41206 0.0656836 0.045817 -0.0470653
0.421527 0.423969 0.0728203 0.0510429 -0.0519366
0.432528 0.435359 0.0780055 0.0525764 -0.0576245
0.443561 0.44623 0.0832098 0.0565748 -0.0610177
0.454593 0.457102 0.0882204 0.0599176 -0.0647513
0.465626 0.467973 0.0935885 0.0639301 -0.0683502
0.476682 0.478344 0.0960221 0.062938 -0.0725194
0.487762 0.488215 0.0980518 0.0648685 -0.073527
0.498841 0.498086 0.0994754 0.0657543 -0.074644
0.509921 0.507957 0.100879 0.067075 -0.0753488
0.521015 0.517354 0.0991752 0.0631385 -0.0764805
0.532125 0.526277 0.0970829 0.0623648 -0.0744024
0.543235 0.5352 0.0944788 0.060612 -0.0724736
0.554345 0.544123 0.091908 0.0592891 -0.0702273
0.565461 0.552603 0.0869495 0.0535991 -0.0684642
0.576583 0.560641 0.0819767 0.0509418 -0.064227
0.587706 0.568679 0.0769336 0.0476978 -0.0603631
0.598829 0.576716 0.0722189 0.0449893 -0.0564936
0.609949 0.584345 0.0661653 0.0393107 -0.0532214
0.621068 0.591565 0.06047 0.0361652 -0.0484634
0.632187 0.598785 0.0551024 0.0328327 -0.0442526
0.643306 0.606005 0.0502762 0.0300686 -0.0402935
0.654415 0.612852 0.044941 0.0255836 -0.0369482
0.665514 0.619326 0.0401111 0.0229448 -0.0329003
0.676612 0.625799 0.0357607 0.020345 -0.0294093
0.687711 0.632273 0.031962 0.0182278 -0.0262549
0.698793 0.638408 0.0280923 0.0152178 -0.0236134
0.709859 0.644205 0.0246735 0.0134049 -0.0207145
0.720924 0.650003 0.0216858 0.0116957 -0.0182615
0.731989 0.6558 0.0191294 0.0103271 -0.0161023
0.74303 0.661293 0.0166537 0.00852385 -0.014307
0.754047 0.666482 0.0144966 0.00742754 -0.0124493
0.765064 0.671671 0.0126472 0.00642107 -0.0108959
0.77608 0.67686 0.0110838 0.0056252 -0.00955023
0.787067 0.681777 0.00961691 0.0046191 -0.00843498
0.798024 0.686422 0.00834619 0.00400605 -0.00732191
0.80898 0.691066 0.00726865 0.00345119 -0.00639707
0.819937 0.695711 0.0063635 0.00301595 -0.0056034
0.830858 0.700114 0.00553165 0.00247644 -0.00494635
0.841744 0.704274 0.00481204 0.00214841 -0.00430582
0.85263 0.708434 0.00420646 0.00185339 -0.00377614
0.863516 0.712594 0.00370057 0.00162354 -0.00332541
0.874362 0.716538 0.00324354 0.00133922 -0.00295416
0.885168 0.720267 0.00284931 0.00116844 -0.00259872
0.895975 0.723996 0.00252194 0.00101528 -0.00230854
0.906781 0.727725 0.00225287 0.000897625 -0.00206633
0.917543 0.731262 0.00201615 0.000748859 -0.00187192
0.92826 0.734608 0.00181534 0.000663334 -0.0016898
0.938978 0.737954 0.00165568 0.00058697 -0.00154814
0.949695 0.741299 0.00153241 0.000531106 -0.00143743
0.960365 0.744474 0.00143154 0.000454081 -0.00135761
0.970988 0.747479 0.00135109 0.000417042 -0.00128512
0.98161 0.750484 0.00129616 0.000387173 -0.00123699
0.992233 0.753488 0.00126299 0.000358211 -0.00121112
0.132739 0.0289471 0.00338626 0.00277477 -0.00194099
0.142825 0.046339 0.00386299 0.00305752 -0.00236098
0.152911 0.0637308 0.00447116 0.00363066 -0.00260952
0.162996 0.0811226 0.00508254 0.00417983 -0.00289158
0.173254 0.098062 0.00552713 0.00447945 -0.00323784
0.183683 0.114549 0.00604584 0.00493396 -0.00349402
0.194113 0.131036 0.00657932 0.00535538 -0.00382195
0.204542 0.147523 0.00721197 0.00586586 -0.00419574
0.215043 0.163661 0.00777715 0.00621514 -0.00467505
0.225616 0.179451 0.00849994 0.0067837 -0.00512156
0.236189 0.195241 0.00934549 0.00739651 -0.00571224
0.246763 0.211031 0.0104414 0.00822754 -0.00642887
0.257398 0.226388 0.0114986 0.00882227 -0.00737471
0.268096 0.241312 0.0128812 0.00985513 -0.00829467
0.278794 0.256236 0.0145493 0.0110113 -0.00950969
0.289492 0.27116 0.0167198 0.0126038 -0.0109862
0.300245 0.285596 0.0188602 0.0137559 -0.0129028
0.311053 0.299543 0.0215526 0.0157198 -0.0147445
0.32186 0.313489 0.024734 0.0178765 -0.0170939
0.332668 0.327436 0.0287238 0.0207606 -0.0198508
0.343524 0.340867 0.0325192 0.0226823 -0.0233026
0.354427 0.353782 0.0370336 0.0259679 -0.0264037
0.36533 0.366697 0.0421029 0.0293691 -0.030168
0.376233 0.379612 0.0481146 0.0337137 -0.0343279
0.387176 0.392004 0.0533383 0.0360406 -0.0393198
0.398158 0.403873 0.0591775 0.0403789 -0.043261
0.40914 0.415742 0.0652613 0.0444452 -0.0477877
0.420122 0.427611 0.0720089 0.0494019 -0.0523902
0.431135 0.438965 0.0769461 0.0508834 -0.0577199
0.442179 0.449803 0.0821139 0.0549671 -0.0610026
0.453223 0.460641 0.0869167 0.0581733 -0.0645784
0.464267 0.471479 0.0918303 0.0619872 -0.0677525
0.475334 0.48182 0.0940323 0.0611475 -0.0714357
0.486423 0.491664 0.0961382 0.0633206 -0.0723399
0.497512 0.501508 0.0974406 0.0641956 -0.0733048
0.508601 0.511352 0.0984995 0.0654496 -0.0736105
0.519704 0.520724 0.0967119 0.0618587 -0.0743418
0.530822 0.529624 0.0948682 0.0614163 -0.0723051
0.54194 0.538525 0.0922994 0.0597374 -0.0703606
0.553058 0.547425 0.0895793 0.0584345 -0.067896
0.564183 0.555885 0.0846973 0.0531362 -0.0659559
0.575313 0.563904 0.0800753 0.0507673 -0.0619253
0.586443 0.571922 0.0751742 0.0475889 -0.0581933
0.597573 0.579941 0.070456 0.0449011 -0.054295
0.608701 0.587553 0.0645515 0.0395183 -0.0510412
0.619827 0.594757 0.0591874 0.0365397 -0.0465618
0.630952 0.601962 0.0539744 0.0332134 -0.0425453
0.642078 0.609166 0.0491967 0.0304288 -0.0386574
0.653194 0.615998 0.0439952 0.026101 -0.0354163
0.664299 0.622458 0.0394032 0.0235161 -0.0316165
0.675405 0.628919 0.0351636 0.0208734 -0.028298
0.68651 0.635379 0.0314066 0.018705 -0.0252289
0.697599 0.641502 0.0276213 0.0157496 -0.0226911
0.708671 0.647287 0.0243429 0.0139279 -0.0199647
0.719743 0.653073 0.0214161 0.0121601 -0.017629
0.730815 0.658858 0.0188807 0.0107355 -0.0155315
0.741863 0.664341 0.0164472 0.00893656 -0.0138075
0.752887 0.669519 0.014362 0.00781169 -0.0120517
0.763911 0.674698 0.01254 0.00675427 -0.0105655
0.774934 0.679877 0.0109831 0.00591351 -0.00925517
0.785928 0.684784 0.00953389 0.00489598 -0.00818074
0.796892 0.68942 0.00829696 0.0042561 -0.00712216
0.807856 0.694056 0.00723003 0.00366507 -0.00623222
0.818819 0.698691 0.00632502 0.00319921 -0.00545628
0.829748 0.703085 0.00549952 0.00264723 -0.00482046
0.840642 0.707237 0.00479515 0.00229977 -0.00420767
0.851535 0.711389 0.00419303 0.00198151 -0.00369528
0.862429 0.715541 0.00368539 0.00173229 -0.00325288
0.873282 0.719477 0.00323015 0.00143834 -0.00289224
0.884097 0.723198 0.0028427 0.00125471 -0.00255082
0.894911 0.72692 0.00251608 0.00108699 -0.00226916
0.905725 0.730641 0.00224499 0.000957177 -0.00203071
0.916495 0.734171 0.00200839 0.000801474 -0.00184154
0.927221 0.73751 0.00181062 0.000707459 -0.00166669
0.937947 0.740848 0.00165084 0.000621631 -0.00152933
0.948673 0.744187 0.00152582 0.000557788 -0.00142021
0.959351 0.747355 0.00142488 0.000475849 -0.00134307
0.969983 0.750353 0.00134663 0.000433388 -0.00127499
0.980615 0.753352 0.00129316 0.000397725 -0.00123047
0.991246 0.75635 0.00126333 0.00036206 -0.00121033
0.130572 0.0346701 0.00361796 0.00292927 -0.00212343
0.140708 0.0519358 0.00401345 0.00310456 -0.00254352
0.150845 0.0692016 0.00459632 0.00366361 -0.00277563
0.160981 0.0864673 0.00518 0.00419168 -0.00304338
0.171285 0.10329 0.00561298 0.00448241 -0.0033784
0.181754 0.11967 0.00613444 0.00493793 -0.0036398
0.192223 0.13605 0.00666653 0.00534893 -0.0039789
0.202693 0.152429 0.00729261 0.00584503 -0.00436093
0.21323 0.16847 0.00786376 0.00618846 -0.00485198
0.223835 0.184172 0.00860385 0.00675506 -0.00532873
0.23444 0.199874 0.0094611 0.00735039 -0.00595686
0.245045 0.215576 0.0105572 0.00815555 -0.00670376
0.255709 0.230853 0.0116322 0.00873188 -0.00768527
0.266432 0.245705 0.0130497 0.00975517 -0.00866791
0.277156 0.260558 0.0147399 0.0108701 -0.00995515
0.287879 0.27541 0.0169041 0.0124048 -0.0114834
0.298655 0.28978 0.0190626 0.0135043 -0.0134543
0.309483 0.303667 0.021795 0.015436 -0.0153868
0.320311 0.317555 0.0249831 0.0175 -0.0178299
0.33114 0.331443 0.0289116 0.0202621 -0.0206235
0.342014 0.34482 0.0326809 0.022077 -0.0240966
0.352933 0.357686 0.037198 0.0253006 -0.0272685
0.363853 0.370552 0.0421991 0.0285412 -0.0310831
0.374773 0.383419 0.0480155 0.0326866 -0.035172
0.38573 0.395766 0.0531093 0.0348832 -0.0400469
0.396726 0.407595 0.0588783 0.0391673 -0.043961
0.407721 0.419424 0.0647817 0.0430472 -0.0484109
0.418717 0.431253 0.0711777 0.047783 -0.0527546
0.429743 0.44257 0.0758929 0.0492203 -0.0577675
0.440798 0.453376 0.0809678 0.053342 -0.0609133
0.451853 0.464181 0.0855459 0.0564323 -0.0642922
0.462908 0.474986 0.0900636 0.0601054 -0.067073
0.473985 0.485297 0.0920708 0.0594143 -0.0703346
0.485084 0.495113 0.0941851 0.0617665 -0.0711036
0.496182 0.50493 0.0953551 0.0626539 -0.0718825
0.507281 0.514746 0.0961399 0.0638937 -0.0718365
0.518393 0.524093 0.094304 0.0606251 -0.0722346
0.52952 0.532971 0.0926372 0.0604461 -0.0701992
0.540646 0.541849 0.090097 0.0588633 -0.0682098
0.551772 0.550727 0.0872928 0.0576199 -0.0655742
0.562904 0.559166 0.0825114 0.0526791 -0.0635062
0.574042 0.567166 0.0781749 0.050544 -0.0596374
0.58518 0.575166 0.0734111 0.0474532 -0.0560124
0.596317 0.583166 0.0687385 0.0448138 -0.052122
0.607452 0.590761 0.062994 0.0396965 -0.0489125
0.618585 0.597949 0.0579102 0.0368517 -0.0446715
0.629718 0.605138 0.0528486 0.0335528 -0.0408312
0.64085 0.612327 0.0481512 0.0307674 -0.0370392
0.651973 0.619144 0.043086 0.0265772 -0.0339125
0.663085 0.625591 0.038698 0.0240313 -0.0303321
0.674197 0.632038 0.0345675 0.0213637 -0.0271754
0.68531 0.638484 0.0308712 0.0191576 -0.0242078
0.696405 0.644595 0.0271699 0.0162469 -0.0217772
0.707484 0.650369 0.0240119 0.0144115 -0.0192063
0.718563 0.656143 0.0211456 0.0125981 -0.0169831
0.729642 0.661917 0.0186418 0.0111259 -0.0149577
0.740696 0.667388 0.0162496 0.00932681 -0.0133064
0.751727 0.672557 0.0142256 0.00817258 -0.0116438
0.762757 0.677725 0.0124313 0.00707223 -0.0102235
0.773788 0.682894 0.0108868 0.00619135 -0.0089549
0.784789 0.687792 0.00945459 0.0051603 -0.00792216
0.79576 0.692418 0.00824604 0.0044938 -0.00691397
0.806731 0.697045 0.00718998 0.00387111 -0.0060589
0.817702 0.701672 0.00628834 0.00337708 -0.00530458
0.828638 0.706057 0.00546869 0.00281158 -0.00469058
0.839539 0.7102 0.00477679 0.00244496 -0.00410364
0.85044 0.714344 0.00417831 0.00210583 -0.00360884
0.861341 0.718487 0.00367062 0.00183844 -0.00317704
0.872203 0.722416 0.00321685 0.00153427 -0.00282739
0.883025 0.72613 0.00283468 0.00133794 -0.00249906
0.893847 0.729843 0.00250886 0.00115691 -0.00222619
0.904669 0.733557 0.00223664 0.00101553 -0.00199281
0.915447 0.73708 0.00199992 0.000852525 -0.00180911
0.926182 0.740411 0.0018043 0.000750084 -0.001641
0.936916 0.743743 0.0016444 0.000655472 -0.00150811
0.94765 0.747075 0.00151817 0.000583928 -0.00140138
0.958338 0.750236 0.00141705 0.000496764 -0.00132712
0.968978 0.753228 0.00134051 0.000448714 -0.00126318
0.979619 0.75622 0.00128845 0.000407207 -0.00122241
0.99026 0.759211 0.0012612 0.000364865 -0.00120727
0.128404 0.0403931 0.00383256 0.00306992 -0.00229435
0.138591 0.0575327 0.00415924 0.00314941 -0.00271671
0.148779 0.0746723 0.00471787 0.0036939 -0.00293485
0.158967 0.0918119 0.0052763 0.00420238 -0.00319051
0.169315 0.108518 0.00569977 0.00448445 -0.0035181
0.179825 0.124791 0.00622141 0.00493729 -0.00378539
0.190334 0.141063 0.00675106 0.00533676 -0.00413471
0.200844 0.157336 0.00737201 0.00581906 -0.00452605
0.211417 0.173279 0.00795041 0.00615562 -0.00503163
0.222054 0.188893 0.00870475 0.00671563 -0.00553833
0.23269 0.204508 0.00957206 0.00729147 -0.00620151
0.243327 0.220122 0.0106707 0.00807161 -0.00697948
0.25402 0.235319 0.0117657 0.00862745 -0.00799999
0.264769 0.250099 0.013213 0.00963345 -0.00904319
0.275517 0.264879 0.0149219 0.010704 -0.0103965
0.286266 0.279659 0.0170835 0.0121831 -0.0119758
0.297065 0.293964 0.0192634 0.0132272 -0.0140043
0.307914 0.307792 0.0220253 0.0151149 -0.0160205
0.318762 0.321621 0.0252133 0.0170837 -0.0185434
0.329611 0.335449 0.0290863 0.0197315 -0.02137
0.340503 0.348773 0.0328345 0.0214398 -0.0248684
0.35144 0.36159 0.0373343 0.024585 -0.0280967
0.362376 0.374408 0.0422556 0.0276684 -0.0319374
0.373312 0.387226 0.0478895 0.0316354 -0.0359528
0.384285 0.399529 0.0528635 0.0337077 -0.0407228
0.395294 0.411318 0.0585308 0.037916 -0.0445896
0.406303 0.423107 0.0642411 0.0416227 -0.0489333
0.417312 0.434896 0.0703134 0.0461737 -0.0530279
0.42835 0.446176 0.0748252 0.0475738 -0.0577541
0.439417 0.456948 0.0797663 0.0517021 -0.0607417
0.450483 0.467721 0.0841112 0.0546966 -0.0638982
0.46155 0.478493 0.0882788 0.0582712 -0.0663145
0.472637 0.488773 0.0901165 0.0577242 -0.0692018
0.483745 0.498563 0.0921921 0.0602122 -0.0698132
0.494853 0.508352 0.0932274 0.0611315 -0.0703867
0.505961 0.518141 0.0937927 0.0623931 -0.0700298
0.517082 0.527463 0.0919321 0.0594257 -0.0701434
0.528217 0.536319 0.0903933 0.0594624 -0.0680821
0.539352 0.545174 0.0878816 0.057992 -0.0660311
0.550486 0.554029 0.0850424 0.0568333 -0.0632629
0.561626 0.562448 0.0803763 0.0522213 -0.0611006
0.572771 0.570429 0.0762801 0.0502811 -0.0573625
0.583916 0.57841 0.071653 0.0472927 -0.0538289
0.595062 0.586391 0.0670612 0.0447194 -0.0499738
0.606204 0.593969 0.0614821 0.0398434 -0.0468248
0.617343 0.601141 0.0566428 0.0371094 -0.0427937
0.628483 0.608314 0.0517311 0.0338525 -0.0391167
0.639623 0.615487 0.0471357 0.0310796 -0.0354377
0.650752 0.62229 0.0422073 0.0270128 -0.032431
0.661871 0.628724 0.037999 0.0244962 -0.0290492
0.67299 0.635157 0.0339764 0.0218168 -0.0260465
0.684109 0.64159 0.0303529 0.0195829 -0.0231907
0.695211 0.647688 0.0267348 0.0167105 -0.0208689
0.706297 0.653451 0.0236828 0.0148591 -0.0184413
0.717382 0.659213 0.0208764 0.0130097 -0.016327
0.728468 0.664975 0.0184112 0.0114968 -0.0143804
0.739529 0.670436 0.0160594 0.00969518 -0.0128027
0.750567 0.675594 0.014089 0.00851182 -0.0112272
0.761604 0.680753 0.0123223 0.00737472 -0.00987176
0.772642 0.685911 0.010794 0.00645769 -0.00864926
0.783649 0.690799 0.00937824 0.00541233 -0.00765886
0.794628 0.695417 0.00819417 0.00471985 -0.00669832
0.805606 0.700034 0.00714909 0.00406902 -0.00587814
0.816584 0.704652 0.00625289 0.00354891 -0.00514819
0.827528 0.709028 0.0054388 0.00296956 -0.00455656
0.838436 0.713163 0.00475738 0.00258424 -0.0039943
0.849345 0.717299 0.00416262 0.00222613 -0.00351735
0.860254 0.721434 0.00365598 0.00194161 -0.0030978
0.871123 0.725355 0.00320346 0.00162703 -0.00275952
0.881953 0.729061 0.00282549 0.00141826 -0.00244376
0.892783 0.732767 0.00250047 0.0012249 -0.00217989
0.903613 0.736473 0.00222768 0.00107246 -0.00195254
0.9144 0.739988 0.00199065 0.000902024 -0.00177455
0.925142 0.743313 0.00179655 0.000791263 -0.00161291
0.935885 0.746638 0.00163646 0.00068839 -0.00148463
0.946628 0.749962 0.00150936 0.00060939 -0.00138088
0.957324 0.753117 0.00140797 0.000516828 -0.00130968
0.967974 0.756102 0.00133275 0.000463058 -0.00124972
0.978623 0.759088 0.00128197 0.000415669 -0.00121271
0.989273 0.762073 0.0012568 0.00036675 -0.00120209
0.126236 0.0461161 0.00402609 0.00319305 -0.00245231
0.136475 0.0631296 0.00429453 0.00318683 -0.00287874
0.146713 0.0801431 0.00483016 0.00371663 -0.00308498
0.156952 0.0971566 0.00536556 0.00420669 -0.00333062
0.167346 0.113746 0.00578062 0.00447975 -0.00365341
0.177895 0.129912 0.00629982 0.00492629 -0.00392675
0.188445 0.146077 0.00682563 0.00531272 -0.00428536
0.198994 0.162243 0.00744199 0.00578076 -0.00468679
0.209604 0.178089 0.0080276 0.00610859 -0.00520842
0.220272 0.193615 0.00879258 0.00665708 -0.00574392
0.230941 0.209141 0.00966757 0.00721063 -0.00643962
0.241609 0.224667 0.0107695 0.0079648 -0.00724879
0.252331 0.239784 0.0118849 0.00849712 -0.00830959
0.263105 0.254492 0.0133556 0.00947772 -0.00940978
0.273879 0.2692 0.0150789 0.0104995 -0.0108229
0.284653 0.283909 0.0172386 0.0119222 -0.0124511
0.295475 0.298148 0.0194408 0.0129077 -0.0145374
0.306344 0.311917 0.0222206 0.0147394 -0.0166284
0.317213 0.325687 0.0254 0.016609 -0.0192173
0.328082 0.339456 0.0292191 0.0191461 -0.0220721
0.338993 0.352725 0.0329487 0.020748 -0.0255957
0.349946 0.365494 0.0374114 0.0238007 -0.0288642
0.360899 0.378263 0.042241 0.0267286 -0.0327091
0.371851 0.391032 0.0476996 0.0305319 -0.0366477
0.382839 0.403291 0.0525615 0.0324873 -0.0413193
0.393862 0.41504 0.0580998 0.036604 -0.0451191
0.404885 0.426789 0.0636062 0.0401494 -0.0493333
0.415907 0.438538 0.0693758 0.0445431 -0.0531874
0.426958 0.449782 0.0737007 0.0459158 -0.0576501
0.438035 0.460521 0.0784772 0.0500298 -0.0604622
0.449113 0.47126 0.0825854 0.0529465 -0.0633799
0.460191 0.481999 0.08644 0.0564546 -0.065458
0.471288 0.49225 0.0881314 0.0560522 -0.0680095
0.482406 0.502012 0.0901368 0.0586464 -0.0684488
0.493524 0.511774 0.0910403 0.0596139 -0.0688079
0.504641 0.521536 0.0914309 0.0609231 -0.0681761
0.515771 0.530833 0.0895672 0.0582426 -0.0680447
0.526914 0.539666 0.0881244 0.0584616 -0.0659406
0.538057 0.548499 0.0856459 0.0571153 -0.0638205
0.5492 0.557332 0.0828104 0.0560578 -0.0609514
0.560348 0.565729 0.0782729 0.0517532 -0.0587218
0.571501 0.573692 0.0743867 0.0499805 -0.0550938
0.582653 0.581654 0.0698984 0.0471044 -0.0516425
0.593806 0.589617 0.0654135 0.0446083 -0.0478437
0.604955 0.597176 0.0600051 0.039956 -0.0447675
0.616102 0.604334 0.0553849 0.0373168 -0.0409261
0.627248 0.611491 0.050623 0.0341122 -0.0374038
0.638395 0.618648 0.0461445 0.031361 -0.0338497
0.649531 0.625436 0.0413534 0.0274077 -0.0309664
0.660657 0.631856 0.0373071 0.0249146 -0.0277683
0.671783 0.638276 0.0333915 0.0222329 -0.0249137
0.682908 0.644696 0.029849 0.0199789 -0.0221767
0.694017 0.650781 0.0263132 0.0171411 -0.0199642
0.705109 0.656532 0.0233567 0.015273 -0.0176712
0.716202 0.662283 0.0206097 0.0133952 -0.015663
0.727294 0.668034 0.0181873 0.0118469 -0.0137996
0.738362 0.673483 0.0158754 0.0100421 -0.0122957
0.749407 0.678632 0.0139529 0.0088305 -0.010803
0.760451 0.68378 0.0122136 0.0076616 -0.00951164
0.771495 0.688928 0.010704 0.00671182 -0.00833828
0.78251 0.693806 0.00930432 0.00565223 -0.00739071
0.793496 0.698415 0.00814185 0.00493468 -0.00647601
0.804481 0.703023 0.00710776 0.00425857 -0.00569076
0.815467 0.707632 0.00621833 0.00371427 -0.00498716
0.826418 0.712 0.00540963 0.00312122 -0.00441837
0.837334 0.716127 0.00473723 0.00271778 -0.00388008
0.84825 0.720254 0.00414619 0.00234222 -0.00342125
0.859166 0.724381 0.0036413 0.00204152 -0.00301517
0.870044 0.728293 0.00318989 0.00171662 -0.00268861
0.880881 0.731992 0.00281533 0.00149571 -0.00238514
0.891719 0.735691 0.00249105 0.00129084 -0.00213051
0.902557 0.739389 0.00221804 0.0011278 -0.00190991
0.913352 0.742897 0.00198055 0.000949957 -0.00173786
0.924103 0.746215 0.00178747 0.00083102 -0.00158255
0.934854 0.749532 0.00162713 0.000720309 -0.00145901
0.945606 0.75285 0.00149935 0.000634075 -0.00135867
0.956311 0.755998 0.00139758 0.000536032 -0.0012907
0.966969 0.758977 0.00132336 0.000476454 -0.00123461
0.977628 0.761955 0.00127367 0.000423152 -0.00120133
0.988286 0.764934 0.00125024 0.000367801 -0.00119492
0.124068 0.0518391 0.00424584 0.0033391 -0.00262251
0.134358 0.0687265 0.00447592 0.00326595 -0.00306063
0.144647 0.0856138 0.00499201 0.00378259 -0.00325762
0.154937 0.102501 0.00551105 0.00425892 -0.00349761
0.165376 0.118974 0.00592282 0.00452473 -0.00382186
0.175966 0.135033 0.00644344 0.00496706 -0.00410442
0.186556 0.151091 0.00697239 0.00534584 -0.00447618
0.197145 0.167149 0.00759318 0.00580606 -0.00489347
0.20779 0.182898 0.00819488 0.00612967 -0.00543905
0.218491 0.198336 0.00897912 0.00667226 -0.00600879
0.229191 0.213774 0.0098748 0.00721348 -0.00674369
0.239892 0.229212 0.0109969 0.0079539 -0.00759397
0.250642 0.244249 0.0121495 0.00847119 -0.00870917
0.261441 0.258886 0.0136605 0.00943795 -0.00987594
0.272241 0.273522 0.015422 0.0104299 -0.0113603
0.283041 0.288158 0.0176099 0.0118192 -0.0130543
0.293885 0.302331 0.0198638 0.0127612 -0.0152224
0.304775 0.316042 0.0226891 0.0145578 -0.017403
0.315664 0.329752 0.0258976 0.0163611 -0.0200748
0.326554 0.343463 0.0297092 0.0188258 -0.0229832
0.337483 0.356678 0.0334625 0.0203426 -0.0265691
0.348452 0.369398 0.0379233 0.0233324 -0.029896
0.359421 0.382119 0.0427089 0.0261519 -0.0337657
0.370391 0.394839 0.048051 0.0298425 -0.0376607
0.381394 0.407054 0.0528468 0.0316991 -0.0422842
0.39243 0.418763 0.0582848 0.0357506 -0.0460328
0.403466 0.430471 0.0636312 0.0391835 -0.0501356
0.414502 0.44218 0.0691538 0.0434679 -0.0537846
0.425565 0.453388 0.0733236 0.0448083 -0.0580394
0.436654 0.464094 0.0779383 0.0489124 -0.0606791
0.447743 0.4748 0.0818311 0.0517817 -0.0633639
0.458832 0.485506 0.0854066 0.0552477 -0.0651305
0.46994 0.495726 0.086955 0.0549492 -0.0673926
0.481067 0.505461 0.0888588 0.0576236 -0.0676417
0.492194 0.515196 0.0896226 0.0586427 -0.0677735
0.503321 0.52493 0.0898432 0.0599955 -0.0668755
0.51446 0.534203 0.087951 0.057534 -0.0665223
0.525612 0.543013 0.086546 0.0578893 -0.0643354
0.536763 0.551823 0.0840687 0.0566512 -0.0621143