ZONE I= 5249 F=point
Variables = Iteration, Relative_Residue
1 0
2 -0.00510052
3 -0.0100852
4 -0.0149591
5 -0.019727
6 -0.0243934
7 -0.0289625
8 -0.0334382
9 -0.0378242
10 -0.0421241
11 -0.0463411
12 -0.0504784
13 -0.0545389
14 -0.0585253
15 -0.0624404
16 -0.0662865
17 -0.0700661
18 -0.0737815
19 -0.0774347
20 -0.0810278
21 -0.0845628
22 -0.0880414
23 -0.0914655
24 -0.0948367
25 -0.0981567
26 -0.101427
27 -0.104649
28 -0.107824
29 -0.110953
30 -0.114038
31 -0.117081
32 -0.120081
33 -0.123041
34 -0.125961
35 -0.128842
36 -0.131686
37 -0.134493
38 -0.137265
39 -0.140001
40 -0.142704
41 -0.145374
42 -0.148011
43 -0.150617
44 -0.153192
45 -0.155738
46 -0.158253
47 -0.16074
48 -0.163199
49 -0.16563
50 -0.168035
51 -0.170413
52 -0.172766
53 -0.175093
54 -0.177396
55 -0.179675
56 -0.18193
57 -0.184162
58 -0.186371
59 -0.188559
60 -0.190724
61 -0.192868
62 -0.194991
63 -0.197093
64 -0.199176
65 -0.201238
66 -0.203282
67 -0.205306
68 -0.207311
69 -0.209298
70 -0.211268
71 -0.213219
72 -0.215153
73 -0.21707
74 -0.21897
75 -0.220853
76 -0.222721
77 -0.224572
78 -0.226408
79 -0.228228
80 -0.230033
81 -0.231823
82 -0.233599
83 -0.23536
84 -0.237107
85 -0.238839
86 -0.240558
87 -0.242264
88 -0.243956
89 -0.245635
90 -0.247301
91 -0.248954
92 -0.250595
93 -0.252223
94 -0.253839
95 -0.255443
96 -0.257035
97 -0.258616
98 -0.260185
99 -0.261743
100 -0.263289
101 -0.264825
102 -0.26635
103 -0.267864
104 -0.269367
105 -0.270861
106 -0.272343
107 -0.273816
108 -0.275279
109 -0.276732
110 -0.278175
111 -0.279609
112 -0.281033
113 -0.282448
114 -0.283854
115 -0.28525
116 -0.286638
117 -0.288017
118 -0.289387
119 -0.290748
120 -0.292102
121 -0.293446
122 -0.294783
123 -0.296111
124 -0.297431
125 -0.298744
126 -0.300048
127 -0.301345
128 -0.302634
129 -0.303915
130 -0.305189
131 -0.306456
132 -0.307716
133 -0.308968
134 -0.310213
135 -0.311452
136 -0.312683
137 -0.313908
138 -0.315125
139 -0.316337
140 -0.317541
141 -0.318739
142 -0.319931
143 -0.321117
144 -0.322296
145 -0.323469
146 -0.324636
147 -0.325797
148 -0.326952
149 -0.328102
150 -0.329245
151 -0.330383
152 -0.331515
153 -0.332642
154 -0.333763
155 -0.334879
156 -0.335989
157 -0.337094
158 -0.338194
159 -0.339288
160 -0.340378
161 -0.341463
162 -0.342542
163 -0.343617
164 -0.344687
165 -0.345752
166 -0.346812
167 -0.347868
168 -0.348919
169 -0.349965
170 -0.351007
171 -0.352045
172 -0.353078
173 -0.354107
174 -0.355131
175 -0.356152
176 -0.357168
177 -0.35818
178 -0.359188
179 -0.360192
180 -0.361192
181 -0.362188
182 -0.36318
183 -0.364169
184 -0.365154
185 -0.366135
186 -0.367112
187 -0.368085
188 -0.369056
189 -0.370022
190 -0.370985
191 -0.371945
192 -0.372901
193 -0.373854
194 -0.374803
195 -0.37575
196 -0.376693
197 -0.377633
198 -0.378569
199 -0.379503
200 -0.380433
201 -0.381361
202 -0.382285
203 -0.383207
204 -0.384125
205 -0.385041
206 -0.385954
207 -0.386864
208 -0.387771
209 -0.388676
210 -0.389578
211 -0.390477
212 -0.391374
213 -0.392268
214 -0.393159
215 -0.394048
216 -0.394934
217 -0.395818
218 -0.3967
219 -0.397579
220 -0.398455
221 -0.39933
222 -0.400202
223 -0.401072
224 -0.401939
225 -0.402804
226 -0.403668
227 -0.404529
228 -0.405387
229 -0.406244
230 -0.407099
231 -0.407951
232 -0.408802
233 -0.40965
234 -0.410497
235 -0.411342
236 -0.412184
237 -0.413025
238 -0.413864
239 -0.414701
240 -0.415536
241 -0.41637
242 -0.417202
243 -0.418032
244 -0.41886
245 -0.419686
246 -0.420511
247 -0.421334
248 -0.422156
249 -0.422976
250 -0.423794
251 -0.424611
252 -0.425426
253 -0.42624
254 -0.427052
255 -0.427863
256 -0.428672
257 -0.42948
258 -0.430286
259 -0.431091
260 -0.431895
261 -0.432697
262 -0.433498
263 -0.434297
264 -0.435095
265 -0.435892
266 -0.436688
267 -0.437482
268 -0.438275
269 -0.439067
270 -0.439858
271 -0.440647
272 -0.441435
273 -0.442222
274 -0.443008
275 -0.443793
276 -0.444577
277 -0.445359
278 -0.446141
279 -0.446921
280 -0.447701
281 -0.448479
282 -0.449256
283 -0.450033
284 -0.450808
285 -0.451582
286 -0.452356
287 -0.453128
288 -0.4539
289 -0.45467
290 -0.45544
291 -0.456208
292 -0.456976
293 -0.457743
294 -0.458509
295 -0.459274
296 -0.460039
297 -0.460802
298 -0.461565
299 -0.462327
300 -0.463088
301 -0.463848
302 -0.464608
303 -0.465366
304 -0.466124
305 -0.466882
306 -0.467638
307 -0.468394
308 -0.469149
309 -0.469904
310 -0.470657
311 -0.47141
312 -0.472163
313 -0.472914
314 -0.473665
315 -0.474416
316 -0.475166
317 -0.475915
318 -0.476663
319 -0.477411
320 -0.478159
321 -0.478905
322 -0.479651
323 -0.480397
324 -0.481142
325 -0.481886
326 -0.48263
327 -0.483374
328 -0.484117
329 -0.484859
330 -0.485601
331 -0.486342
332 -0.487083
333 -0.487823
334 -0.488563
335 -0.489302
336 -0.490041
337 -0.490779
338 -0.491517
339 -0.492255
340 -0.492992
341 -0.493728
342 -0.494465
343 -0.4952
344 -0.495936
345 -0.496671
346 -0.497405
347 -0.498139
348 -0.498873
349 -0.499606
350 -0.500339
351 -0.501072
352 -0.501804
353 -0.502536
354 -0.503267
355 -0.503998
356 -0.504729
357 -0.505459
358 -0.506189
359 -0.506919
360 -0.507649
361 -0.508378
362 -0.509106
363 -0.509835
364 -0.510563
365 -0.511291
366 -0.512018
367 -0.512746
368 -0.513473
369 -0.514199
370 -0.514926
371 -0.515652
372 -0.516378
373 -0.517103
374 -0.517828
375 -0.518553
376 -0.519278
377 -0.520003
378 -0.520727
379 -0.521451
380 -0.522175
381 -0.522898
382 -0.523622
383 -0.524345
384 -0.525068
385 -0.52579
386 -0.526513
387 -0.527235
388 -0.527957
389 -0.528679
390 -0.529401
391 -0.530122
392 -0.530843
393 -0.531564
394 -0.532285
395 -0.533006
396 -0.533726
397 -0.534446
398 -0.535166
399 -0.535886
400 -0.536606
401 -0.537326
402 -0.538045
403 -0.538764
404 -0.539483
405 -0.540202
406 -0.540921
407 -0.54164
408 -0.542358
409 -0.543076
410 -0.543794
411 -0.544512
412 -0.54523
413 -0.545948
414 -0.546666
415 -0.547383
416 -0.5481
417 -0.548818
418 -0.549535
419 -0.550252
420 -0.550968
421 -0.551685
422 -0.552402
423 -0.553118
424 -0.553834
425 -0.554551
426 -0.555267
427 -0.555983
428 -0.556699
429 -0.557415
430 -0.55813
431 -0.558846
432 -0.559561
433 -0.560277
434 -0.560992
435 -0.561707
436 -0.562422
437 -0.563137
438 -0.563852
439 -0.564567
440 -0.565282
441 -0.565997
442 -0.566711
443 -0.567426
444 -0.56814
445 -0.568855
446 -0.569569
447 -0.570283
448 -0.570997
449 -0.571711
450 -0.572425
451 -0.573139
452 -0.573853
453 -0.574567
454 -0.575281
455 -0.575994
456 -0.576708
457 -0.577422
458 -0.578135
459 -0.578848
460 -0.579562
461 -0.580275
462 -0.580988
463 -0.581702
464 -0.582415
465 -0.583128
466 -0.583841
467 -0.584554
468 -0.585267
469 -0.58598
470 -0.586693
471 -0.587405
472 -0.588118
473 -0.588831
474 -0.589544
475 -0.590256
476 -0.590969
477 -0.591681
478 -0.592394
479 -0.593106
480 -0.593819
481 -0.594531
482 -0.595244
483 -0.595956
484 -0.596668
485 -0.597381
486 -0.598093
487 -0.598805
488 -0.599517
489 -0.600229
490 -0.600942
491 -0.601654
492 -0.602366
493 -0.603078
494 -0.60379
495 -0.604502
496 -0.605214
497 -0.605926
498 -0.606638
499 -0.60735
500 -0.608061
501 -0.608773
502 -0.609485
503 -0.610197
504 -0.610909
505 -0.611621
506 -0.612332
507 -0.613044
508 -0.613756
509 -0.614467
510 -0.615179
511 -0.615891
512 -0.616603
513 -0.617314
514 -0.618026
515 -0.618737
516 -0.619449
517 -0.620161
518 -0.620872
519 -0.621584
520 -0.622295
521 -0.623007
522 -0.623718
523 -0.62443
524 -0.625142
525 -0.625853
526 -0.626565
527 -0.627276
528 -0.627988
529 -0.628699
530 -0.62941
531 -0.630122
532 -0.630833
533 -0.631545
534 -0.632256
535 -0.632968
536 -0.633679
537 -0.634391
538 -0.635102
539 -0.635814
540 -0.636525
541 -0.637236
542 -0.637948
543 -0.638659
544 -0.639371
545 -0.640082
546 -0.640793
547 -0.641505
548 -0.642216
549 -0.642928
550 -0.643639
551 -0.644351
552 -0.645062
553 -0.645773
554 -0.646485
555 -0.647196
556 -0.647908
557 -0.648619
558 -0.64933
559 -0.650042
560 -0.650753
561 -0.651465
562 -0.652176
563 -0.652888
564 -0.653599
565 -0.65431
566 -0.655022
567 -0.655733
568 -0.656445
569 -0.657156
570 -0.657868
571 -0.658579
572 -0.659291
573 -0.660002
574 -0.660713
575 -0.661425
576 -0.662136
577 -0.662848
578 -0.663559
579 -0.664271
580 -0.664982
581 -0.665694
582 -0.666405
583 -0.667117
584 -0.667828
585 -0.66854
586 -0.669252
587 -0.669963
588 -0.670675
589 -0.671386
590 -0.672098
591 -0.672809
592 -0.673521
593 -0.674232
594 -0.674944
595 -0.675656
596 -0.676367
597 -0.677079
598 -0.67779
599 -0.678502
600 -0.679214
601 -0.679925
602 -0.680637
603 -0.681349
604 -0.68206
605 -0.682772
606 -0.683484
607 -0.684195
608 -0.684907
609 -0.685619
610 -0.686331
611 -0.687042
612 -0.687754
613 -0.688466
614 -0.689178
615 -0.689889
616 -0.690601
617 -0.691313
618 -0.692025
619 -0.692736
620 -0.693448
621 -0.69416
622 -0.694872
623 -0.695584
624 -0.696296
625 -0.697007
626 -0.697719
627 -0.698431
628 -0.699143
629 -0.699855
630 -0.700567
631 -0.701279
632 -0.701991
633 -0.702703
634 -0.703415
635 -0.704126
636 -0.704838
637 -0.70555
638 -0.706262
639 -0.706974
640 -0.707686
641 -0.708398
642 -0.70911
643 -0.709822
644 -0.710534
645 -0.711246
646 -0.711959
647 -0.712671
648 -0.713383
649 -0.714095
650 -0.714807
651 -0.715519
652 -0.716231
653 -0.716943
654 -0.717655
655 -0.718367
656 -0.71908
657 -0.719792
658 -0.720504
659 -0.721216
660 -0.721928
661 -0.722641
662 -0.723353
663 -0.724065
664 -0.724777
665 -0.725489
666 -0.726202
667 -0.726914
668 -0.727626
669 -0.728339
670 -0.729051
671 -0.729763
672 -0.730475
673 -0.731188
674 -0.7319
675 -0.732612
676 -0.733325
677 -0.734037
678 -0.73475
679 -0.735462
680 -0.736174
681 -0.736887
682 -0.737599
683 -0.738312
684 -0.739024
685 -0.739736
686 -0.740449
687 -0.741161
688 -0.741874
689 -0.742586
690 -0.743299
691 -0.744011
692 -0.744724
693 -0.745436
694 -0.746149
695 -0.746861
696 -0.747574
697 -0.748287
698 -0.748999
699 -0.749712
700 -0.750424
701 -0.751137
702 -0.751849
703 -0.752562
704 -0.753275
705 -0.753987
706 -0.7547
707 -0.755413
708 -0.756125
709 -0.756838
710 -0.757551
711 -0.758263
712 -0.758976
713 -0.759689
714 -0.760401
715 -0.761114
716 -0.761827
717 -0.76254
718 -0.763252
719 -0.763965
720 -0.764678
721 -0.765391
722 -0.766104
723 -0.766816
724 -0.767529
725 -0.768242
726 -0.768955
727 -0.769668
728 -0.77038
729 -0.771093
730 -0.771806
731 -0.772519
732 -0.773232
733 -0.773945
734 -0.774658
735 -0.775371
736 -0.776083
737 -0.776796
738 -0.777509
739 -0.778222
740 -0.778935
741 -0.779648
742 -0.780361
743 -0.781074
744 -0.781787
745 -0.7825
746 -0.783213
747 -0.783926
748 -0.784639
749 -0.785352
750 -0.786065
751 -0.786778
752 -0.787491
753 -0.788204
754 -0.788917
755 -0.78963
756 -0.790343
757 -0.791057
758 -0.79177
759 -0.792483
760 -0.793196
761 -0.793909
762 -0.794622
763 -0.795335
764 -0.796048
765 -0.796761
766 -0.797475
767 -0.798188
768 -0.798901
769 -0.799614
770 -0.800327
771 -0.80104
772 -0.801754
773 -0.802467
774 -0.80318
775 -0.803893
776 -0.804606
777 -0.80532
778 -0.806033
779 -0.806746
780 -0.807459
781 -0.808173
782 -0.808886
783 -0.809599
784 -0.810313
785 -0.811026
786 -0.811739
787 -0.812452
788 -0.813166
789 -0.813879
790 -0.814592
791 -0.815306
792 -0.816019
793 -0.816732
794 -0.817446
795 -0.818159
796 -0.818872
797 -0.819586
798 -0.820299
799 -0.821013
800 -0.821726
801 -0.822439
802 -0.823153
803 -0.823866
804 -0.82458
805 -0.825293
806 -0.826006
807 -0.82672
808 -0.827433
809 -0.828147
810 -0.82886
811 -0.829574
812 -0.830287
813 -0.831001
814 -0.831714
815 -0.832428
816 -0.833141
817 -0.833855
818 -0.834568
819 -0.835282
820 -0.835995
821 -0.836709
822 -0.837422
823 -0.838136
824 -0.838849
825 -0.839563
826 -0.840276
827 -0.84099
828 -0.841703
829 -0.842417
830 -0.84313
831 -0.843844
832 -0.844558
833 -0.845271
834 -0.845985
835 -0.846698
836 -0.847412
837 -0.848126
838 -0.848839
839 -0.849553
840 -0.850266
841 -0.85098
842 -0.851694
843 -0.852407
844 -0.853121
845 -0.853835
846 -0.854548
847 -0.855262
848 -0.855976
849 -0.856689
850 -0.857403
851 -0.858117
852 -0.85883
853 -0.859544
854 -0.860258
855 -0.860971
856 -0.861685
857 -0.862399
858 -0.863113
859 -0.863826
860 -0.86454
861 -0.865254
862 -0.865967
863 -0.866681
864 -0.867395
865 -0.868109
866 -0.868822
867 -0.869536
868 -0.87025
869 -0.870964
870 -0.871677
871 -0.872391
872 -0.873105
873 -0.873819
874 -0.874533
875 -0.875246
876 -0.87596
877 -0.876674
878 -0.877388
879 -0.878102
880 -0.878815
881 -0.879529
882 -0.880243
883 -0.880957
884 -0.881671
885 -0.882385
886 -0.883098
887 -0.883812
888 -0.884526
889 -0.88524
890 -0.885954
891 -0.886668
892 -0.887382
893 -0.888095
894 -0.888809
895 -0.889523
896 -0.890237
897 -0.890951
898 -0.891665
899 -0.892379
900 -0.893093
901 -0.893806
902 -0.89452
903 -0.895234
904 -0.895948
905 -0.896662
906 -0.897376
907 -0.89809
908 -0.898804
909 -0.899518
910 -0.900232
911 -0.900946
912 -0.90166
913 -0.902374
914 -0.903087
915 -0.903801
916 -0.904515
917 -0.905229
918 -0.905943
919 -0.906657
920 -0.907371
921 -0.908085
922 -0.908799
923 -0.909513
924 -0.910227
925 -0.910941
926 -0.911655
927 -0.912369
928 -0.913083
929 -0.913797
930 -0.914511
931 -0.915225
932 -0.915939
933 -0.916653
934 -0.917367
935 -0.918081
936 -0.918795
937 -0.919509
938 -0.920223
939 -0.920937
940 -0.921651
941 -0.922365
942 -0.923079
943 -0.923793
944 -0.924507
945 -0.925221
946 -0.925936
947 -0.92665
948 -0.927364
949 -0.928078
950 -0.928792
951 -0.929506
952 -0.93022
953 -0.930934
954 -0.931648
955 -0.932362
956 -0.933076
957 -0.93379
958 -0.934504
959 -0.935218
960 -0.935933
961 -0.936647
962 -0.937361
963 -0.938075
964 -0.938789
965 -0.939503
966 -0.940217
967 -0.940931
968 -0.941645
969 -0.942359
970 -0.943074
971 -0.943788
972 -0.944502
973 -0.945216
974 -0.94593
975 -0.946644
976 -0.947358
977 -0.948072
978 -0.948787
979 -0.949501
980 -0.950215
981 -0.950929
982 -0.951643
983 -0.952357
984 -0.953071
985 -0.953786
986 -0.9545
987 -0.955214
988 -0.955928
989 -0.956642
990 -0.957356
991 -0.958071
992 -0.958785
993 -0.959499
994 -0.960213
995 -0.960927
996 -0.961641
997 -0.962356
998 -0.96307
999 -0.963784
1000 -0.964498
1001 -0.965212
1002 -0.965927
1003 -0.966641
1004 -0.967355
1005 -0.968069
1006 -0.968783
1007 -0.969497
1008 -0.970212
1009 -0.970926
1010 -0.97164
1011 -0.972354
1012 -0.973069
1013 -0.973783
1014 -0.974497
1015 -0.975211
1016 -0.975925
1017 -0.97664
1018 -0.977354
1019 -0.978068
1020 -0.978782
1021 -0.979496
1022 -0.980211
1023 -0.980925
1024 -0.981639
1025 -0.982353
1026 -0.983068
1027 -0.983782
1028 -0.984496
1029 -0.98521
1030 -0.985925
1031 -0.986639
1032 -0.987353
1033 -0.988067
1034 -0.988782
1035 -0.989496
1036 -0.99021
1037 -0.990924
1038 -0.991639
1039 -0.992353
1040 -0.993067
1041 -0.993781
1042 -0.994496
1043 -0.99521
1044 -0.995924
1045 -0.996638
1046 -0.997353
1047 -0.998067
1048 -0.998781
1049 -0.999496
1050 -1.00021
1051 -1.00092
1052 -1.00164
1053 -1.00235
1054 -1.00307
1055 -1.00378
1056 -1.0045
1057 -1.00521
1058 -1.00592
1059 -1.00664
1060 -1.00735
1061 -1.00807
1062 -1.00878
1063 -1.0095
1064 -1.01021
1065 -1.01092
1066 -1.01164
1067 -1.01235
1068 -1.01307
1069 -1.01378
1070 -1.0145
1071 -1.01521
1072 -1.01592
1073 -1.01664
1074 -1.01735
1075 -1.01807
1076 -1.01878
1077 -1.0195
1078 -1.02021
1079 -1.02092
1080 -1.02164
1081 -1.02235
1082 -1.02307
1083 -1.02378
1084 -1.0245
1085 -1.02521
1086 -1.02592
1087 -1.02664
1088 -1.02735
1089 -1.02807
1090 -1.02878
1091 -1.0295
1092 -1.03021
1093 -1.03093
1094 -1.03164
1095 -1.03235
1096 -1.03307
1097 -1.03378
1098 -1.0345
1099 -1.03521
1100 -1.03593
1101 -1.03664
1102 -1.03735
1103 -1.03807
1104 -1.03878
1105 -1.0395
1106 -1.04021
1107 -1.04093
1108 -1.04164
1109 -1.04235
1110 -1.04307
1111 -1.04378
1112 -1.0445
1113 -1.04521
1114 -1.04593
1115 -1.04664
1116 -1.04736
1117 -1.04807
1118 -1.04878
1119 -1.0495
1120 -1.05021
1121 -1.05093
1122 -1.05164
1123 -1.05236
1124 -1.05307
1125 -1.05378
1126 -1.0545
1127 -1.05521
1128 -1.05593
1129 -1.05664
1130 -1.05736
1131 -1.05807
1132 -1.05879
1133 -1.0595
1134 -1.06021
1135 -1.06093
1136 -1.06164
1137 -1.06236
1138 -1.06307
1139 -1.06379
1140 -1.0645
1141 -1.06521
1142 -1.06593
1143 -1.06664
1144 -1.06736
1145 -1.06807
1146 -1.06879
1147 -1.0695
1148 -1.07022
1149 -1.07093
1150 -1.07164
1151 -1.07236
1152 -1.07307
1153 -1.07379
1154 -1.0745
1155 -1.07522
1156 -1.07593
1157 -1.07664
1158 -1.07736
1159 -1.07807
1160 -1.07879
1161 -1.0795
1162 -1.08022
1163 -1.08093
1164 -1.08165
1165 -1.08236
1166 -1.08307
1167 -1.08379
1168 -1.0845
1169 -1.08522
1170 -1.08593
1171 -1.08665
1172 -1.08736
1173 -1.08808
1174 -1.08879
1175 -1.0895
1176 -1.09022
1177 -1.09093
1178 -1.09165
1179 -1.09236
1180 -1.09308
1181 -1.09379
1182 -1.09451
1183 -1.09522
1184 -1.09593
1185 -1.09665
1186 -1.09736
1187 -1.09808
1188 -1.09879
1189 -1.09951
1190 -1.10022
1191 -1.10094
1192 -1.10165
1193 -1.10236
1194 -1.10308
1195 -1.10379
1196 -1.10451
1197 -1.10522
1198 -1.10594
1199 -1.10665
1200 -1.10736
1201 -1.10808
1202 -1.10879
1203 -1.10951
1204 -1.11022
1205 -1.11094
1206 -1.11165
1207 -1.11237
1208 -1.11308
1209 -1.11379
1210 -1.11451
1211 -1.11522
1212 -1.11594
1213 -1.11665
1214 -1.11737
1215 -1.11808
1216 -1.1188
1217 -1.11951
1218 -1.12022
1219 -1.12094
1220 -1.12165
1221 -1.12237
1222 -1.12308
1223 -1.1238
1224 -1.12451
1225 -1.12523
1226 -1.12594
1227 -1.12665
1228 -1.12737
1229 -1.12808
1230 -1.1288
1231 -1.12951
1232 -1.13023
1233 -1.13094
1234 -1.13166
1235 -1.13237
1236 -1.13308
1237 -1.1338
1238 -1.13451
1239 -1.13523
1240 -1.13594
1241 -1.13666
1242 -1.13737
1243 -1.13809
1244 -1.1388
1245 -1.13951
1246 -1.14023
1247 -1.14094
1248 -1.14166
1249 -1.14237
1250 -1.14309
1251 -1.1438
1252 -1.14452
1253 -1.14523
1254 -1.14595
1255 -1.14666
1256 -1.14737
1257 -1.14809
1258 -1.1488
1259 -1.14952
1260 -1.15023
1261 -1.15095
1262 -1.15166
1263 -1.15238
1264 -1.15309
1265 -1.1538
1266 -1.15452
1267 -1.15523
1268 -1.15595
1269 -1.15666
1270 -1.15738
1271 -1.15809
1272 -1.15881
1273 -1.15952
1274 -1.16023
1275 -1.16095
1276 -1.16166
1277 -1.16238
1278 -1.16309
1279 -1.16381
1280 -1.16452
1281 -1.16524
1282 -1.16595
1283 -1.16666
1284 -1.16738
1285 -1.16809
1286 -1.16881
1287 -1.16952
1288 -1.17024
1289 -1.17095
1290 -1.17167
1291 -1.17238
1292 -1.17309
1293 -1.17381
1294 -1.17452
1295 -1.17524
1296 -1.17595
1297 -1.17667
1298 -1.17738
1299 -1.1781
1300 -1.17881
1301 -1.17953
1302 -1.18024
1303 -1.18095
1304 -1.18167
1305 -1.18238
1306 -1.1831
1307 -1.18381
1308 -1.18453
1309 -1.18524
1310 -1.18596
1311 -1.18667
1312 -1.18738
1313 -1.1881
1314 -1.18881
1315 -1.18953
1316 -1.19024
1317 -1.19096
1318 -1.19167
1319 -1.19239
1320 -1.1931
1321 -1.19381
1322 -1.19453
1323 -1.19524
1324 -1.19596
1325 -1.19667
1326 -1.19739
1327 -1.1981
1328 -1.19882
1329 -1.19953
1330 -1.20025
1331 -1.20096
1332 -1.20167
1333 -1.20239
1334 -1.2031
1335 -1.20382
1336 -1.20453
1337 -1.20525
1338 -1.20596
1339 -1.20668
1340 -1.20739
1341 -1.2081
1342 -1.20882
1343 -1.20953
1344 -1.21025
1345 -1.21096
1346 -1.21168
1347 -1.21239
1348 -1.21311
1349 -1.21382
1350 -1.21453
1351 -1.21525
1352 -1.21596
1353 -1.21668
1354 -1.21739
1355 -1.21811
1356 -1.21882
1357 -1.21954
1358 -1.22025
1359 -1.22097
1360 -1.22168
1361 -1.22239
1362 -1.22311
1363 -1.22382
1364 -1.22454
1365 -1.22525
1366 -1.22597
1367 -1.22668
1368 -1.2274
1369 -1.22811
1370 -1.22882
1371 -1.22954
1372 -1.23025
1373 -1.23097
1374 -1.23168
1375 -1.2324
1376 -1.23311
1377 -1.23383
1378 -1.23454
1379 -1.23526
1380 -1.23597
1381 -1.23668
1382 -1.2374
1383 -1.23811
1384 -1.23883
1385 -1.23954
1386 -1.24026
1387 -1.24097
1388 -1.24169
1389 -1.2424
1390 -1.24311
1391 -1.24383
1392 -1.24454
1393 -1.24526
1394 -1.24597
1395 -1.24669
1396 -1.2474
1397 -1.24812
1398 -1.24883
1399 -1.24955
1400 -1.25026
1401 -1.25097
1402 -1.25169
1403 -1.2524
1404 -1.25312
1405 -1.25383
1406 -1.25455
1407 -1.25526
1408 -1.25598
1409 -1.25669
1410 -1.2574
1411 -1.25812
1412 -1.25883
1413 -1.25955
1414 -1.26026
1415 -1.26098
1416 -1.26169
1417 -1.26241
1418 -1.26312
1419 -1.26384
1420 -1.26455
1421 -1.26526
1422 -1.26598
1423 -1.26669
1424 -1.26741
1425 -1.26812
1426 -1.26884
1427 -1.26955
1428 -1.27027
1429 -1.27098
1430 -1.27169
1431 -1.27241
1432 -1.27312
1433 -1.27384
1434 -1.27455
1435 -1.27527
1436 -1.27598
1437 -1.2767
1438 -1.27741
1439 -1.27813
1440 -1.27884
1441 -1.27955
1442 -1.28027
1443 -1.28098
1444 -1.2817
1445 -1.28241
1446 -1.28313
1447 -1.28384
1448 -1.28456
1449 -1.28527
1450 -1.28599
1451 -1.2867
1452 -1.28741
1453 -1.28813
1454 -1.28884
1455 -1.28956
1456 -1.29027
1457 -1.29099
1458 -1.2917
1459 -1.29242
1460 -1.29313
1461 -1.29384
1462 -1.29456
1463 -1.29527
1464 -1.29599
1465 -1.2967
1466 -1.29742
1467 -1.29813
1468 -1.29885
1469 -1.29956
1470 -1.30028
1471 -1.30099
1472 -1.3017
1473 -1.30242
1474 -1.30313
1475 -1.30385
1476 -1.30456
1477 -1.30528
1478 -1.30599
1479 -1.30671
1480 -1.30742
1481 -1.30813
1482 -1.30885
1483 -1.30956
1484 -1.31028
1485 -1.31099
1486 -1.31171
1487 -1.31242
1488 -1.31314
1489 -1.31385
1490 -1.31457
1491 -1.31528
1492 -1.31599
1493 -1.31671
1494 -1.31742
1495 -1.31814
1496 -1.31885
1497 -1.31957
1498 -1.32028
1499 -1.321
1500 -1.32171
1501 -1.32243
1502 -1.32314
1503 -1.32385
1504 -1.32457
1505 -1.32528
1506 -1.326
1507 -1.32671
1508 -1.32743
1509 -1.32814
1510 -1.32886
1511 -1.32957
1512 -1.33028
1513 -1.331
1514 -1.33171
1515 -1.33243
1516 -1.33314
1517 -1.33386
1518 -1.33457
1519 -1.33529
1520 -1.336
1521 -1.33672
1522 -1.33743
1523 -1.33814
1524 -1.33886
1525 -1.33957
1526 -1.34029
1527 -1.341
1528 -1.34172
1529 -1.34243
1530 -1.34315
1531 -1.34386
1532 -1.34458
1533 -1.34529
1534 -1.346
1535 -1.34672
1536 -1.34743
1537 -1.34815
1538 -1.34886
1539 -1.34958
1540 -1.35029
1541 -1.35101
1542 -1.35172
1543 -1.35243
1544 -1.35315
1545 -1.35386
1546 -1.35458
1547 -1.35529
1548 -1.35601
1549 -1.35672
1550 -1.35744
1551 -1.35815
1552 -1.35887
1553 -1.35958
1554 -1.36029
1555 -1.36101
1556 -1.36172
1557 -1.36244
1558 -1.36315
1559 -1.36387
1560 -1.36458
1561 -1.3653
1562 -1.36601
1563 -1.36673
1564 -1.36744
1565 -1.36815
1566 -1.36887
1567 -1.36958
1568 -1.3703
1569 -1.37101
1570 -1.37173
1571 -1.37244
1572 -1.37316
1573 -1.37387
1574 -1.37459
1575 -1.3753
1576 -1.37601
1577 -1.37673
1578 -1.37744
1579 -1.37816
1580 -1.37887
1581 -1.37959
1582 -1.3803
1583 -1.38102
1584 -1.38173
1585 -1.38244
1586 -1.38316
1587 -1.38387
1588 -1.38459
1589 -1.3853
1590 -1.38602
1591 -1.38673
1592 -1.38745
1593 -1.38816
1594 -1.38888
1595 -1.38959
1596 -1.3903
1597 -1.39102
1598 -1.39173
1599 -1.39245
1600 -1.39316
1601 -1.39388
1602 -1.39459
1603 -1.39531
1604 -1.39602
1605 -1.39674
1606 -1.39745
1607 -1.39816
1608 -1.39888
1609 -1.39959
1610 -1.40031
1611 -1.40102
1612 -1.40174
1613 -1.40245
1614 -1.40317
1615 -1.40388
1616 -1.40459
1617 -1.40531
1618 -1.40602
1619 -1.40674
1620 -1.40745
1621 -1.40817
1622 -1.40888
1623 -1.4096
1624 -1.41031
1625 -1.41103
1626 -1.41174
1627 -1.41245
1628 -1.41317
1629 -1.41388
1630 -1.4146
1631 -1.41531
1632 -1.41603
1633 -1.41674
1634 -1.41746
1635 -1.41817
1636 -1.41889
1637 -1.4196
1638 -1.42031
1639 -1.42103
1640 -1.42174
1641 -1.42246
1642 -1.42317
1643 -1.42389
1644 -1.4246
1645 -1.42532
1646 -1.42603
1647 -1.42675
1648 -1.42746
1649 -1.42817
1650 -1.42889
1651 -1.4296
1652 -1.43032
1653 -1.43103
1654 -1.43175
1655 -1.43246
1656 -1.43318
1657 -1.43389
1658 -1.4346
1659 -1.43532
1660 -1.43603
1661 -1.43675
1662 -1.43746
1663 -1.43818
1664 -1.43889
1665 -1.43961
1666 -1.44032
1667 -1.44104
1668 -1.44175
1669 -1.44246
1670 -1.44318
1671 -1.44389
1672 -1.44461
1673 -1.44532
1674 -1.44604
1675 -1.44675
1676 -1.44747
1677 -1.44818
1678 -1.4489
1679 -1.44961
1680 -1.45032
1681 -1.45104
1682 -1.45175
1683 -1.45247
1684 -1.45318
1685 -1.4539
1686 -1.45461
1687 -1.45533
1688 -1.45604
1689 -1.45676
1690 -1.45747
1691 -1.45818
1692 -1.4589
1693 -1.45961
1694 -1.46033
1695 -1.46104
1696 -1.46176
1697 -1.46247
1698 -1.46319
1699 -1.4639
1700 -1.46462
1701 -1.46533
1702 -1.46604
1703 -1.46676
1704 -1.46747
1705 -1.46819
1706 -1.4689
1707 -1.46962
1708 -1.47033
1709 -1.47105
1710 -1.47176
1711 -1.47247
1712 -1.47319
1713 -1.4739
1714 -1.47462
1715 -1.47533
1716 -1.47605
1717 -1.47676
1718 -1.47748
1719 -1.47819
1720 -1.47891
1721 -1.47962
1722 -1.48033
1723 -1.48105
1724 -1.48176
1725 -1.48248
1726 -1.48319
1727 -1.48391
1728 -1.48462
1729 -1.48534
1730 -1.48605
1731 -1.48677
1732 -1.48748
1733 -1.48819
1734 -1.48891
1735 -1.48962
1736 -1.49034
1737 -1.49105
1738 -1.49177
1739 -1.49248
1740 -1.4932
1741 -1.49391
1742 -1.49463
1743 -1.49534
1744 -1.49605
1745 -1.49677
1746 -1.49748
1747 -1.4982
1748 -1.49891
1749 -1.49963
1750 -1.50034
1751 -1.50106
1752 -1.50177
1753 -1.50248
1754 -1.5032
1755 -1.50391
1756 -1.50463
1757 -1.50534
1758 -1.50606
1759 -1.50677
1760 -1.50749
1761 -1.5082
1762 -1.50892
1763 -1.50963
1764 -1.51034
1765 -1.51106
1766 -1.51177
1767 -1.51249
1768 -1.5132
1769 -1.51392
1770 -1.51463
1771 -1.51535
1772 -1.51606
1773 -1.51678
1774 -1.51749
1775 -1.5182
1776 -1.51892
1777 -1.51963
1778 -1.52035
1779 -1.52106
1780 -1.52178
1781 -1.52249
1782 -1.52321
1783 -1.52392
1784 -1.52464
1785 -1.52535
1786 -1.52606
1787 -1.52678
1788 -1.52749
1789 -1.52821
1790 -1.52892
1791 -1.52964
1792 -1.53035
1793 -1.53107
1794 -1.53178
1795 -1.5325
1796 -1.53321
1797 -1.53392
1798 -1.53464
1799 -1.53535
1800 -1.53607
1801 -1.53678
1802 -1.5375
1803 -1.53821
1804 -1.53893
1805 -1.53964
1806 -1.54035
1807 -1.54107
1808 -1.54178
1809 -1.5425
1810 -1.54321
1811 -1.54393
1812 -1.54464
1813 -1.54536
1814 -1.54607
1815 -1.54679
1816 -1.5475
1817 -1.54821
1818 -1.54893
1819 -1.54964
1820 -1.55036
1821 -1.55107
1822 -1.55179
1823 -1.5525
1824 -1.55322
1825 -1.55393
1826 -1.55465
1827 -1.55536
1828 -1.55607
1829 -1.55679
1830 -1.5575
1831 -1.55822
1832 -1.55893
1833 -1.55965
1834 -1.56036
1835 -1.56108
1836 -1.56179
1837 -1.56251
1838 -1.56322
1839 -1.56393
1840 -1.56465
1841 -1.56536
1842 -1.56608
1843 -1.56679
1844 -1.56751
1845 -1.56822
1846 -1.56894
1847 -1.56965
1848 -1.57037
1849 -1.57108
1850 -1.57179
1851 -1.57251
1852 -1.57322
1853 -1.57394
1854 -1.57465
1855 -1.57537
1856 -1.57608
1857 -1.5768
1858 -1.57751
1859 -1.57822
1860 -1.57894
1861 -1.57965
1862 -1.58037
1863 -1.58108
1864 -1.5818
1865 -1.58251
1866 -1.58323
1867 -1.58394
1868 -1.58466
1869 -1.58537
1870 -1.58608
1871 -1.5868
1872 -1.58751
1873 -1.58823
1874 -1.58894
1875 -1.58966
1876 -1.59037
1877 -1.59109
1878 -1.5918
1879 -1.59252
1880 -1.59323
1881 -1.59394
1882 -1.59466
1883 -1.59537
1884 -1.59609
1885 -1.5968
1886 -1.59752
1887 -1.59823
1888 -1.59895
1889 -1.59966
1890 -1.60038
1891 -1.60109
1892 -1.6018
1893 -1.60252
1894 -1.60323
1895 -1.60395
1896 -1.60466
1897 -1.60538
1898 -1.60609
1899 -1.60681
1900 -1.60752
1901 -1.60824
1902 -1.60895
1903 -1.60966
1904 -1.61038
1905 -1.61109
1906 -1.61181
1907 -1.61252
1908 -1.61324
1909 -1.61395
1910 -1.61467
1911 -1.61538
1912 -1.61609
1913 -1.61681
1914 -1.61752
1915 -1.61824
1916 -1.61895
1917 -1.61967
1918 -1.62038
1919 -1.6211
1920 -1.62181
1921 -1.62253
1922 -1.62324
1923 -1.62395
1924 -1.62467
1925 -1.62538
1926 -1.6261
1927 -1.62681
1928 -1.62753
1929 -1.62824
1930 -1.62896
1931 -1.62967
1932 -1.63039
1933 -1.6311
1934 -1.63181
1935 -1.63253
1936 -1.63324
1937 -1.63396
1938 -1.63467
1939 -1.63539
1940 -1.6361
1941 -1.63682
1942 -1.63753
1943 -1.63825
1944 -1.63896
1945 -1.63967
1946 -1.64039
1947 -1.6411
1948 -1.64182
1949 -1.64253
1950 -1.64325
1951 -1.64396
1952 -1.64468
1953 -1.64539
1954 -1.64611
1955 -1.64682
1956 -1.64753
1957 -1.64825
1958 -1.64896
1959 -1.64968
1960 -1.65039
1961 -1.65111
1962 -1.65182
1963 -1.65254
1964 -1.65325
1965 -1.65396
1966 -1.65468
1967 -1.65539
1968 -1.65611
1969 -1.65682
1970 -1.65754
1971 -1.65825
1972 -1.65897
1973 -1.65968
1974 -1.6604
1975 -1.66111
1976 -1.66182
1977 -1.66254
1978 -1.66325
1979 -1.66397
1980 -1.66468
1981 -1.6654
1982 -1.66611
1983 -1.66683
1984 -1.66754
1985 -1.66826
1986 -1.66897
1987 -1.66968
1988 -1.6704
1989 -1.67111
1990 -1.67183
1991 -1.67254
1992 -1.67326
1993 -1.67397
1994 -1.67469
1995 -1.6754
1996 -1.67612
1997 -1.67683
1998 -1.67754
1999 -1.67826
2000 -1.67897
2001 -1.67969
2002 -1.6804
2003 -1.68112
2004 -1.68183
2005 -1.68255
2006 -1.68326
2007 -1.68398
2008 -1.68469
2009 -1.6854
2010 -1.68612
2011 -1.68683
2012 -1.68755
2013 -1.68826
2014 -1.68898
2015 -1.68969
2016 -1.69041
2017 -1.69112
2018 -1.69183
2019 -1.69255
2020 -1.69326
2021 -1.69398
2022 -1.69469
2023 -1.69541
2024 -1.69612
2025 -1.69684
2026 -1.69755
2027 -1.69827
2028 -1.69898
2029 -1.69969
2030 -1.70041
2031 -1.70112
2032 -1.70184
2033 -1.70255
2034 -1.70327
2035 -1.70398
2036 -1.7047
2037 -1.70541
2038 -1.70613
2039 -1.70684
2040 -1.70755
2041 -1.70827
2042 -1.70898
2043 -1.7097
2044 -1.71041
2045 -1.71113
2046 -1.71184
2047 -1.71256
2048 -1.71327
2049 -1.71399
2050 -1.7147
2051 -1.71541
2052 -1.71613
2053 -1.71684
2054 -1.71756
2055 -1.71827
2056 -1.71899
2057 -1.7197
2058 -1.72042
2059 -1.72113
2060 -1.72185
2061 -1.72256
2062 -1.72327
2063 -1.72399
2064 -1.7247
2065 -1.72542
2066 -1.72613
2067 -1.72685
2068 -1.72756
2069 -1.72828
2070 -1.72899
2071 -1.72971
2072 -1.73042
2073 -1.73113
2074 -1.73185
2075 -1.73256
2076 -1.73328
2077 -1.73399
2078 -1.73471
2079 -1.73542
2080 -1.73614
2081 -1.73685
2082 -1.73756
2083 -1.73828
2084 -1.73899
2085 -1.73971
2086 -1.74042
2087 -1.74114
2088 -1.74185
2089 -1.74257
2090 -1.74328
2091 -1.744
2092 -1.74471
2093 -1.74542
2094 -1.74614
2095 -1.74685
2096 -1.74757
2097 -1.74828
2098 -1.749
2099 -1.74971
2100 -1.75043
2101 -1.75114
2102 -1.75186
2103 -1.75257
2104 -1.75328
2105 -1.754
2106 -1.75471
2107 -1.75543
2108 -1.75614
2109 -1.75686
2110 -1.75757
2111 -1.75829
2112 -1.759
2113 -1.75972
2114 -1.76043
2115 -1.76114
2116 -1.76186
2117 -1.76257
2118 -1.76329
2119 -1.764
2120 -1.76472
2121 -1.76543
2122 -1.76615
2123 -1.76686
2124 -1.76758
2125 -1.76829
2126 -1.769
2127 -1.76972
2128 -1.77043
2129 -1.77115
2130 -1.77186
2131 -1.77258
2132 -1.77329
2133 -1.77401
2134 -1.77472
2135 -1.77543
2136 -1.77615
2137 -1.77686
2138 -1.77758
2139 -1.77829
2140 -1.77901
2141 -1.77972
2142 -1.78044
2143 -1.78115
2144 -1.78187
2145 -1.78258
2146 -1.78329
2147 -1.78401
2148 -1.78472
2149 -1.78544
2150 -1.78615
2151 -1.78687
2152 -1.78758
2153 -1.7883
2154 -1.78901
2155 -1.78973
2156 -1.79044